/*--------------------------------*- C++ -*----------------------------------*\
  =========                 |
  \\      /  F ield         | OpenFOAM: The Open Source CFD Toolbox
   \\    /   O peration     | Website:  https://openfoam.org
    \\  /    A nd           | Version:  7
     \\/     M anipulation  |
\*---------------------------------------------------------------------------*/
FoamFile
{
    version     2.0;
    format      ascii;
    class       volScalarField;
    location    "4.75";
    object      p;
}
// * * * * * * * * * * * * * * * * * * * * * * * * * * * * * * * * * * * * * //

dimensions      [0 2 -2 0 0 0 0];

internalField   nonuniform List<scalar> 
382612
(
0.00212141
0.00193563
0.00203469
0.00203961
0.00181326
0.0022729
0.0021593
0.00202434
0.00184406
0.00175296
0.00189623
0.00188341
0.00188037
0.00191431
0.00197545
0.00212088
0.00193161
0.00207242
0.00206098
0.00208528
0.00210926
0.00214086
0.0021725
0.00221374
0.00219105
0.00216358
0.00213865
0.00262015
0.0026713
0.00271395
0.00274927
0.00253528
0.00252641
0.00251509
0.00249608
0.00239538
0.00204486
0.00209963
0.00217374
0.00221182
0.00224477
0.00227444
0.00221183
0.0021922
0.00216677
0.00213619
0.00204977
0.0020667
0.00209094
0.00211122
0.00225565
0.00223303
0.00220703
0.00217953
0.00213768
0.0020085
0.00203894
0.0020929
0.00216599
0.00207847
0.00216254
0.0020919
0.00211838
0.00267492
0.00214434
0.00195442
0.00227449
0.00246766
0.00257159
0.00272957
0.00275123
0.00275517
0.0027575
0.00296017
0.00294881
0.00293356
0.00290483
0.0027844
0.00254423
0.00266841
0.0027166
0.00274835
0.00277062
0.00312975
0.00313616
0.00314228
0.00311705
0.00291994
0.00224038
0.00239803
0.00243775
0.00245749
0.00247064
0.0026478
0.00266178
0.00267812
0.00266926
0.00254572
0.00208398
0.00212993
0.00217153
0.00219216
0.00221419
0.00223904
0.0021186
0.00210822
0.00209662
0.00209099
0.00190669
0.00193954
0.00196593
0.00198582
0.00223101
0.00220377
0.00217454
0.00214611
0.00209944
0.00178604
0.00186942
0.00190567
0.00192653
0.00194046
0.00210969
0.00208107
0.00205154
0.00202114
0.00193984
0.0016929
0.00185996
0.00203494
0.00206643
0.00208008
0.00208621
0.00230342
0.00231073
0.00232101
0.00232811
0.00241915
0.00238964
0.00228464
0.00225748
0.00223866
0.0022251
0.00190725
0.00189462
0.00187939
0.00186568
0.00201621
0.00203862
0.00205624
0.00206901
0.0020754
0.00206424
0.00205061
0.00204001
0.00207631
0.00198817
0.00192525
0.00192687
0.00193672
0.00194465
0.00186962
0.00202244
0.0020484
0.00173608
0.00184493
0.0018265
0.00213207
0.00235352
0.00174555
0.00177577
0.00209324
0.00174262
0.00180691
0.00178445
0.00173721
0.00173836
0.00174847
0.00175422
0.00231776
0.00232963
0.00234829
0.00236678
0.00233387
0.00188247
0.00185569
0.00184961
0.0018524
0.00185631
0.00225045
0.00226791
0.00229516
0.00232525
0.0023414
0.00200001
0.00215109
0.00216899
0.00216951
0.00216541
0.00216325
0.00192862
0.0019296
0.00193308
0.00194557
0.00157643
0.0015842
0.00159444
0.00159887
0.00200752
0.00200482
0.00200087
0.00199945
0.0020343
0.0015903
0.00158138
0.00202394
0.00192467
0.00155641
0.0017915
0.00197979
0.00166319
0.00196463
0.00194076
0.00166601
0.00150638
0.0018559
0.00191667
0.00178313
0.0015738
0.00180132
0.001945
0.00200394
0.00203129
0.00198509
0.00185612
0.00173964
0.00204131
0.00194024
0.00200784
0.00207398
0.0020071
0.00202152
0.00214546
0.00215606
0.00195367
0.00196125
0.00200603
0.00201888
0.00203594
0.00205445
0.00224758
0.0022431
0.00223184
0.00218768
0.00248714
0.00246356
0.0024448
0.0024272
0.00291122
0.00289939
0.00288775
0.00285882
0.00270255
0.00257845
0.00250176
0.00252295
0.00253978
0.00254536
0.0025528
0.00219298
0.00219402
0.00218724
0.0021712
0.00218241
0.00269797
0.00266715
0.00267394
0.00268549
0.00269513
0.00253393
0.00251864
0.00249443
0.00247491
0.00249413
0.00276613
0.00272713
0.00272809
0.0027435
0.00275622
0.00299634
0.00299587
0.00299409
0.00298117
0.00289506
0.00279936
0.00294303
0.00297861
0.00299454
0.00300391
0.00346655
0.00347192
0.00347831
0.00345242
0.00323391
0.00240466
0.00245055
0.0024698
0.00249468
0.00251538
0.00257665
0.00256665
0.00255304
0.0025256
0.00239833
0.00216728
0.00226646
0.00230648
0.00233563
0.00235531
0.00272189
0.00273759
0.00276194
0.00276616
0.00263856
0.00184387
0.00186482
0.00187632
0.0018981
0.00191838
0.00207574
0.00210017
0.00211759
0.0021338
0.00214474
0.00199902
0.00197985
0.0019555
0.00193828
0.00190593
0.00248561
0.00252811
0.00251242
0.00248441
0.00246363
0.00181105
0.00179845
0.00178293
0.00177846
0.0017972
0.00236629
0.00233118
0.00230008
0.00227143
0.00225248
0.00167758
0.00167363
0.00166916
0.00168187
0.00177017
0.00190154
0.00184323
0.00183749
0.00184601
0.00185426
0.00215134
0.00216828
0.00219283
0.00222359
0.00227976
0.00183227
0.00173823
0.00172648
0.00173291
0.00173852
0.00214729
0.00216037
0.00217946
0.00220037
0.00220851
0.00196849
0.00204579
0.00205092
0.00205243
0.00204915
0.00204597
0.00191776
0.00191786
0.00191863
0.00192526
0.00172643
0.00172501
0.00172733
0.0017281
0.00197153
0.00197412
0.00197593
0.00197742
0.00198713
0.00174296
0.00197986
0.00192119
0.0019095
0.00190792
0.00190662
0.00182942
0.00197999
0.00212628
0.00206557
0.00204481
0.00203359
0.002026
0.00191377
0.00191551
0.00191682
0.00191589
0.00202431
0.00202081
0.00201568
0.00201154
0.0020317
0.00203417
0.00203745
0.00203972
0.00196318
0.00196588
0.0019683
0.001969
0.00211449
0.00212069
0.00212814
0.0021368
0.00217082
0.00197351
0.00204528
0.00208485
0.00209064
0.00184872
0.00199984
0.00197962
0.00178973
0.00170058
0.00194917
0.00195289
0.00170894
0.00212388
0.00211917
0.00207392
0.00205934
0.00191728
0.00202866
0.0019584
0.00202201
0.00200478
0.00211652
0.00215066
0.00210252
0.00209194
0.00209078
0.00209131
0.00212505
0.00212228
0.00211851
0.00211797
0.00213596
0.00225059
0.00224147
0.00223451
0.00223223
0.00223281
0.00219076
0.0021934
0.00219779
0.00220577
0.00223179
0.00207426
0.002055
0.00205346
0.00205205
0.00204863
0.00204601
0.00206618
0.00206329
0.00205937
0.00205771
0.00197491
0.00197781
0.0019802
0.00198132
0.0020119
0.00201443
0.00201752
0.00201979
0.00202636
0.00197154
0.00214552
0.00211568
0.00211121
0.00210825
0.00210525
0.00210972
0.00216433
0.00212404
0.00210182
0.00210441
0.00211045
0.00211449
0.00227353
0.00227349
0.00227205
0.00226704
0.00225977
0.00232572
0.00233548
0.00233577
0.00233564
0.0023362
0.00224714
0.00224526
0.00224327
0.00224512
0.00226806
0.0022336
0.00222915
0.00223039
0.00222972
0.00222888
0.00207795
0.00207386
0.00206866
0.0020665
0.00206381
0.00206222
0.00205813
0.00205474
0.0020806
0.00208254
0.00208463
0.00208515
0.00210434
0.00210379
0.00210524
0.00210583
0.00229222
0.00228532
0.00227558
0.00226513
0.00226532
0.0021189
0.00208501
0.00209235
0.00217058
0.00211688
0.0020814
0.00206151
0.00204578
0.00188978
0.00199959
0.00205432
0.0020113
0.00216954
0.0021028
0.00208125
0.00214731
0.00207681
0.0020626
0.00220273
0.00220498
0.00229192
0.00228018
0.0022407
0.00222503
0.00222645
0.00223176
0.00223559
0.00236063
0.0023565
0.0023497
0.00234062
0.00233185
0.00238033
0.00239233
0.00239656
0.0023991
0.00240043
0.00233175
0.00233091
0.00232846
0.00232435
0.00232898
0.00242235
0.00243133
0.00243773
0.00244033
0.00244165
0.00239685
0.0023873
0.00237418
0.00235855
0.00233983
0.00221616
0.00222554
0.00222549
0.00222322
0.00222112
0.00232427
0.00231413
0.00230172
0.00228564
0.00224756
0.00215305
0.00210297
0.00211081
0.00211561
0.00211601
0.00211552
0.00213646
0.00213225
0.00212727
0.00212872
0.00214693
0.00215033
0.00215376
0.00215615
0.00209395
0.00209516
0.00209655
0.00209671
0.00209409
0.00214444
0.00214684
0.00209211
0.00211868
0.00216883
0.00210317
0.0020733
0.00211648
0.00218557
0.00227982
0.00215615
0.00212245
0.00224127
0.00225716
0.00212488
0.00221186
0.00240674
0.00221144
0.00210668
0.00237277
0.00243932
0.00243449
0.00241764
0.00238639
0.00234212
0.00226447
0.00227506
0.00228302
0.0022868
0.00228882
0.00237916
0.00237794
0.00237711
0.00237652
0.00236789
0.00245621
0.00247771
0.00248401
0.00248735
0.00248967
0.00245532
0.00244961
0.0024412
0.00242956
0.00241742
0.00246848
0.00249937
0.0025105
0.00251525
0.002518
0.0025472
0.00254261
0.00253734
0.00252995
0.00250322
0.00246367
0.00247343
0.00248348
0.00249396
0.00250185
0.00254309
0.00253986
0.00253502
0.00252354
0.00248958
0.00238827
0.00240586
0.00241559
0.00242275
0.00242754
0.00226733
0.00226192
0.00225492
0.00224568
0.00222464
0.00213659
0.00210806
0.00212195
0.00212755
0.00212864
0.0021276
0.00215888
0.00215385
0.00214713
0.00214119
0.00215806
0.00216349
0.0021703
0.00217762
0.00212177
0.00211912
0.00211362
0.00210376
0.00208943
0.00215036
0.0022523
0.00226553
0.00227484
0.00228402
0.00229168
0.00225413
0.00224651
0.00223767
0.00222886
0.00221076
0.00211296
0.00207785
0.00210167
0.0021088
0.00211338
0.00211865
0.0021628
0.00215291
0.00214156
0.0021324
0.00213639
0.00214213
0.00214762
0.00215197
0.00212414
0.00211838
0.0021139
0.00210737
0.00207954
0.00211859
0.00213605
0.0020783
0.00207233
0.00210896
0.00214225
0.00207314
0.00211278
0.00218929
0.00223339
0.00212382
0.00213343
0.00219852
0.00218695
0.00209596
0.00205575
0.00204065
0.00240295
0.00219694
0.00224033
0.00242775
0.00239627
0.00220687
0.00211588
0.00218683
0.0019296
0.00197928
0.00202834
0.00204776
0.0019989
0.00202954
0.00205905
0.00205661
0.00207644
0.00207688
0.00203568
0.00192563
0.00219354
0.00215521
0.00221571
0.00220251
0.00224967
0.00221372
0.00220393
0.00220184
0.00220174
0.00219637
0.00219688
0.00219975
0.00220809
0.00221633
0.002299
0.00230061
0.00229657
0.0022949
0.00229462
0.00219349
0.00219265
0.00219032
0.00218427
0.00217492
0.00216321
0.00214207
0.00213441
0.0021329
0.00213352
0.00223426
0.00223289
0.00223229
0.00223315
0.00223139
0.00230562
0.00231619
0.00232131
0.00232573
0.00232869
0.00240049
0.00239815
0.00239213
0.00237949
0.00235935
0.0024336
0.00246736
0.00248395
0.00249106
0.00249461
0.00256663
0.002561
0.00255408
0.00254452
0.00251876
0.00253336
0.00256527
0.00257612
0.00258218
0.00258614
0.0025636
0.00255851
0.00255205
0.00254245
0.00251585
0.00246426
0.00248477
0.00249297
0.00249882
0.00250283
0.00240765
0.00239973
0.00238974
0.00238151
0.00237427
0.00237458
0.00240713
0.0024185
0.00242322
0.00242641
0.00228509
0.00228571
0.00228445
0.00227689
0.00224259
0.00224401
0.00227284
0.00227912
0.0022782
0.00227575
0.00211093
0.00210422
0.00209696
0.00209433
0.00209903
0.00210794
0.00211398
0.00211935
0.00209094
0.00208669
0.00208163
0.00207413
0.00206057
0.0020919
0.00209251
0.00209714
0.00210309
0.00210777
0.00215487
0.00215578
0.00215607
0.00215586
0.00215555
0.00213329
0.00214004
0.00214268
0.0021446
0.00214607
0.00207365
0.0020682
0.00206179
0.00205825
0.00204355
0.00204856
0.00205312
0.00205764
0.00209465
0.00209052
0.00208769
0.00208503
0.00208336
0.00208159
0.00208496
0.00208892
0.00215786
0.00216141
0.00216558
0.0021683
0.00216809
0.00209498
0.00207957
0.00206279
0.00206649
0.00198046
0.00200329
0.0021065
0.00212413
0.00211175
0.00207603
0.00211583
0.00220064
0.00193929
0.00201498
0.00203323
0.00193799
0.00200545
0.00201433
0.00209748
0.0021408
0.00218013
0.00209939
0.002102
0.00219573
0.00215276
0.00207302
0.00205018
0.00202928
0.00226863
0.00217765
0.00213323
0.00226913
0.00228701
0.00256625
0.0027778
0.00287579
0.00285819
0.00272628
0.00250636
0.00225649
0.00200407
0.00177727
0.00165191
0.00167145
0.00167943
0.00167746
0.00167342
0.00183333
0.00182948
0.00182611
0.00182753
0.00183458
0.00199971
0.00204337
0.00205703
0.00205664
0.00205359
0.00215929
0.0021547
0.00214961
0.00214695
0.00213962
0.00215939
0.00219167
0.00219546
0.00219806
0.00220097
0.00231144
0.00230977
0.00230441
0.00228652
0.00222072
0.00236521
0.00238342
0.00239139
0.00239938
0.00240607
0.00242679
0.00242252
0.00241649
0.00240397
0.00235355
0.00233116
0.00237607
0.00239069
0.0023972
0.00240046
0.00247593
0.00246856
0.00245955
0.00245071
0.0024344
0.00244985
0.00247523
0.00248879
0.00249763
0.00250324
0.00251695
0.00251371
0.00250795
0.00249583
0.00246668
0.00242622
0.00245895
0.00246969
0.00247347
0.00247509
0.0023391
0.00233443
0.00232865
0.00232394
0.00231629
0.00233814
0.00234655
0.00234779
0.00234814
0.00234864
0.00223781
0.00223043
0.0022224
0.00222051
0.00223862
0.00223409
0.00223382
0.00223752
0.00224127
0.00224379
0.00222253
0.00222535
0.0022294
0.00223354
0.00223195
0.00217669
0.00216703
0.00216871
0.00217125
0.0021729
0.00209532
0.00209382
0.00209144
0.00209092
0.00210599
0.00207427
0.00206802
0.0020689
0.00207018
0.00207038
0.00208718
0.00208417
0.00208052
0.0020787
0.00208704
0.00201946
0.00201667
0.0020195
0.00202669
0.00203368
0.00203961
0.00204135
0.00203513
0.00202644
0.00201832
0.00204631
0.00204725
0.00205012
0.0020525
0.00205588
0.00205386
0.00205193
0.00204823
0.00204176
0.00205526
0.00208572
0.00208083
0.00208106
0.00206472
0.00199206
0.00204028
0.00202751
0.00197307
0.0021092
0.00207481
0.00192656
0.00177136
0.00184655
0.00197411
0.00191231
0.00176808
0.00186169
0.00191442
0.00195759
0.00195415
0.00201876
0.00201218
0.00201577
0.00198145
0.00178059
0.00192467
0.00190905
0.00174957
0.00169003
0.00187035
0.00204522
0.0022855
0.00249128
0.00261187
0.00261012
0.00247443
0.00224883
0.00196586
0.00166556
0.00140204
0.00129989
0.00134098
0.00134709
0.0013421
0.00133615
0.00144164
0.00143659
0.00143182
0.00143089
0.00143184
0.00172929
0.00178031
0.00179172
0.00178782
0.00178139
0.00191335
0.001907
0.00190011
0.00189548
0.00188707
0.00207675
0.00209391
0.00210165
0.00210817
0.00211303
0.00212
0.00211224
0.00210292
0.00209522
0.00207912
0.0022333
0.00224646
0.00225424
0.00226224
0.00226855
0.00219365
0.00218773
0.00218162
0.00217863
0.00217017
0.00226584
0.00225693
0.00225524
0.00225907
0.00226308
0.00231314
0.00231043
0.0023057
0.00229881
0.00229208
0.00238294
0.00239239
0.00239518
0.00239906
0.00240322
0.00237241
0.00237028
0.00236812
0.00236824
0.00237288
0.00230514
0.00231065
0.00230812
0.00230772
0.00230825
0.00227082
0.00227029
0.002271
0.00227673
0.00228907
0.00221663
0.00220883
0.00221016
0.00221482
0.0022188
0.00233768
0.00233754
0.00233663
0.00233088
0.00230781
0.00233832
0.00231882
0.0023669
0.00237135
0.00230364
0.00232755
0.00233595
0.00233776
0.00233723
0.00221635
0.00221365
0.00221059
0.00221133
0.00222606
0.00220725
0.00220868
0.00221193
0.00221236
0.00221196
0.00218038
0.00217993
0.00217871
0.00217613
0.00218117
0.00214571
0.00214916
0.00215023
0.00215019
0.00214995
0.00205566
0.00205473
0.00205403
0.00205795
0.00208332
0.00219559
0.00218681
0.00217503
0.00216697
0.00216259
0.00210889
0.00211178
0.00211764
0.00213182
0.00217741
0.00206925
0.0020657
0.00205738
0.00205485
0.00205341
0.00205375
0.00202704
0.00202806
0.00203045
0.00204003
0.00198077
0.00198857
0.00199324
0.00199614
0.00207938
0.00207806
0.0020763
0.00206962
0.00205178
0.00196932
0.00203767
0.00211569
0.00202728
0.00197256
0.001988
0.00212779
0.00202074
0.00200586
0.00202687
0.0020344
0.00203508
0.00203402
0.00193716
0.00193681
0.00193551
0.00193577
0.00195201
0.00197875
0.00200418
0.00200538
0.00200194
0.00199834
0.00202176
0.0020284
0.00203483
0.0020328
0.00199567
0.0019729
0.00200015
0.00201391
0.00201754
0.00201958
0.00202277
0.00200288
0.00200621
0.00200816
0.00200319
0.00196325
0.00196781
0.00197487
0.00197971
0.00204694
0.00204313
0.0020384
0.00203081
0.00202185
0.00198414
0.00208384
0.00206133
0.00203343
0.00198402
0.0018303
0.0019653
0.00193224
0.00174255
0.00171336
0.00188762
0.00182428
0.0016228
0.00182136
0.00189275
0.00196808
0.00201747
0.00185913
0.00187717
0.00192262
0.00190431
0.00188944
0.0019479
0.00200575
0.00196344
0.00206117
0.00204827
0.00201721
0.00199545
0.00183308
0.00197265
0.00197234
0.00184711
0.00211893
0.00209851
0.00204161
0.00206909
0.00198717
0.00200471
0.00196958
0.00197882
0.00162116
0.00182802
0.00184211
0.0015599
0.00156719
0.00183095
0.00190682
0.00187251
0.00174426
0.00188665
0.00182847
0.0016432
0.00170129
0.00186222
0.0019107
0.0016747
0.00163261
0.00188232
0.00187806
0.00158744
0.00162469
0.00188515
0.00193522
0.00172125
0.00162145
0.00191075
0.0019082
0.00159558
0.0017693
0.00177195
0.00172535
0.00170735
0.00162945
0.00162001
0.0016226
0.00162335
0.00181762
0.00181698
0.00181657
0.00182582
0.00188689
0.00217627
0.00210305
0.00207879
0.00206544
0.00205784
0.00181911
0.00181511
0.00181101
0.00182193
0.00190783
0.00214751
0.00211494
0.00209512
0.00208407
0.00207827
0.00199917
0.00199231
0.00198535
0.00199065
0.00205703
0.00194534
0.00189723
0.00176472
0.00174761
0.001692
0.00168363
0.00168476
0.00168478
0.00188392
0.00188566
0.0018864
0.00188778
0.00191671
0.00214039
0.00209453
0.00207624
0.0020696
0.00206711
0.00195071
0.00194719
0.00194314
0.0019484
0.00200133
0.00218182
0.00216974
0.00215754
0.00215096
0.00214754
0.00203081
0.00202897
0.00202746
0.00203517
0.00209307
0.00205032
0.0020225
0.0019353
0.00191001
0.00185644
0.00180961
0.0018038
0.00180573
0.00180772
0.00201487
0.00201737
0.00202366
0.00203841
0.00205449
0.00211921
0.00210137
0.00208902
0.00208475
0.00208389
0.00206235
0.00206038
0.00205757
0.00205741
0.00207612
0.00210698
0.00208995
0.00208992
0.00209073
0.00209088
0.00212597
0.00224796
0.002208
0.00211279
0.00195225
0.00186767
0.00186293
0.00186591
0.00186633
0.00186527
0.0020469
0.00204537
0.00204819
0.00206071
0.00207711
0.00209358
0.00208894
0.00208572
0.00208781
0.00209139
0.00196151
0.00196462
0.0019652
0.00195614
0.00193472
0.00181783
0.00179034
0.00178179
0.00178237
0.00178465
0.00160948
0.00161322
0.00161578
0.00161087
0.0016028
0.00143576
0.00141563
0.00140422
0.00140111
0.00140088
0.00140592
0.00140485
0.00140502
0.00141148
0.00143208
0.00118455
0.00116977
0.00116523
0.0011667
0.00116952
0.00116284
0.00116405
0.00116798
0.00117558
0.00118503
0.0010348
0.00100691
0.00100547
0.00100707
0.00100864
0.000995167
0.000988986
0.000984353
0.000985637
0.0010098
0.00132604
0.00135792
0.00136328
0.00135749
0.00135014
0.00144189
0.00143509
0.00142758
0.00142532
0.00143621
0.00165944
0.00166879
0.00167612
0.00168385
0.00169047
0.00196349
0.00196752
0.00197002
0.00195837
0.00189338
0.0020049
0.00204783
0.00205802
0.0020606
0.00206257
0.0019816
0.00198387
0.00198406
0.00197536
0.00195443
0.00205358
0.00205207
0.00205656
0.00205951
0.00206203
0.00217274
0.0021738
0.00217383
0.00216695
0.00214613
0.00209242
0.00208025
0.00208043
0.00208146
0.00208121
0.00225041
0.00224874
0.00225019
0.00225592
0.00226258
0.00209775
0.00208637
0.00208766
0.00208936
0.00208976
0.00212189
0.00212278
0.00212402
0.00212325
0.00211761
0.00207255
0.00204853
0.00204468
0.00204496
0.00204556
0.00216735
0.00217011
0.00217675
0.0021904
0.00220373
0.00220268
0.00216874
0.00215721
0.00215361
0.00215254
0.00199116
0.00198933
0.00198647
0.00198463
0.00199961
0.00198328
0.00196792
0.00196822
0.00196953
0.00196999
0.00214092
0.00214909
0.00216402
0.00218756
0.00220505
0.00223233
0.00223048
0.00221062
0.00219582
0.00218721
0.00217909
0.00218196
0.00218902
0.00220358
0.00221792
0.00226395
0.00224185
0.00223893
0.00223778
0.00223883
0.00205964
0.00205697
0.00205348
0.00205273
0.00206358
0.00193654
0.00194066
0.00197203
0.00198451
0.00199561
0.00200431
0.00204301
0.00204261
0.00204042
0.00202271
0.00211735
0.00211553
0.00211409
0.00211387
0.0020856
0.00208077
0.0020777
0.00207862
0.00209706
0.00211059
0.00203824
0.00207124
0.00199354
0.00192129
0.00215274
0.00207588
0.00201031
0.001951
0.00181799
0.00192904
0.00190911
0.00181652
0.00185947
0.00186067
0.00194334
0.00195841
0.00191991
0.00195968
0.00197506
0.0019138
0.00182889
0.0019375
0.00193814
0.0018331
0.00185196
0.00191764
0.00187829
0.00183499
0.0019063
0.0016576
0.00150866
0.0013898
0.00133636
0.00134055
0.00137138
0.00139429
0.00138932
0.00134549
0.00124436
0.00109979
0.000946745
0.00081174
0.000682028
0.000742039
0.000732334
0.000732979
0.000736306
0.000738952
0.000953045
0.000964746
0.000977549
0.000982095
0.000961763
0.000989515
0.000988779
0.000986116
0.000982307
0.000979022
0.00101144
0.00102235
0.00103323
0.0010348
0.00101965
0.00120357
0.00116893
0.00116514
0.00117191
0.00117967
0.00141358
0.00142289
0.00143128
0.00142611
0.00139419
0.00160373
0.00159363
0.00159212
0.00159761
0.00160244
0.00183642
0.00183143
0.00182764
0.00182947
0.00184169
0.00172817
0.00174525
0.0017485
0.00174688
0.00174413
0.00167848
0.00168363
0.00168688
0.00168627
0.00169843
0.00198601
0.00196468
0.00195363
0.00195451
0.00195827
0.00204148
0.00204032
0.00204242
0.00205588
0.00209703
0.00189624
0.00190016
0.00190079
0.00189912
0.0018974
0.00186162
0.00186339
0.00186566
0.00186994
0.00189129
0.00209951
0.00209095
0.00207577
0.00206925
0.00206773
0.00206756
0.00206847
0.00207296
0.00208827
0.00213157
0.00189478
0.00188642
0.00188661
0.00188756
0.00188724
0.00193712
0.0019381
0.00193924
0.00193977
0.00194028
0.00195944
0.0019294
0.00192253
0.00192042
0.00191931
0.00212294
0.00213113
0.00214537
0.00216456
0.00216801
0.00188509
0.00188375
0.00188793
0.00188975
0.00189027
0.00190087
0.0018988
0.0018932
0.00188165
0.00187297
0.00185915
0.00186817
0.00188255
0.00189252
0.00189787
0.00196355
0.00195776
0.0019478
0.00192999
0.00190315
0.00179198
0.00182763
0.00184788
0.0018582
0.00186332
0.00207962
0.002075
0.00206745
0.00204809
0.00198533
0.00216142
0.00217953
0.00217512
0.00217058
0.00216875
0.00206149
0.00206726
0.00207272
0.00206871
0.00200347
0.00200853
0.00201708
0.0020248
0.0020688
0.00205763
0.00204489
0.0020341
0.00203564
0.00204657
0.00204672
0.00204477
0.00226687
0.0022653
0.00226445
0.00225432
0.00217391
0.00196679
0.00203431
0.00204673
0.00190583
0.00186557
0.00204243
0.00203177
0.00186539
0.00190736
0.00207301
0.00209956
0.00210905
0.00211217
0.00211585
0.00198263
0.00197419
0.00195969
0.00194264
0.002179
0.00219556
0.0021928
0.002191
0.00206416
0.00206044
0.00205407
0.00204096
0.00202407
0.00222421
0.00219704
0.00219183
0.00218339
0.00217855
0.00219551
0.00219293
0.00219036
0.0021858
0.00226634
0.00198525
0.00202862
0.002024
0.00202644
0.00203157
0.00203585
0.00209259
0.0020963
0.00209937
0.00208792
0.00201101
0.00203349
0.00204028
0.00204511
0.00201412
0.00200888
0.00200268
0.00199486
0.00196696
0.00186175
0.00182071
0.00202806
0.00199809
0.00199124
0.00197459
0.0019377
0.00193004
0.00190303
0.00206901
0.00199786
0.00191899
0.00194306
0.00198211
0.00191305
0.00196157
0.00192691
0.00188259
0.00165807
0.00137392
0.00109311
0.000894215
0.000806351
0.000830949
0.00091011
0.000968337
0.000955896
0.000873139
0.000753972
0.000666458
0.000568811
0.000512276
0.000437795
0.000478136
0.000465678
0.000457347
0.000448137
0.000440513
0.000508147
0.000508119
0.000510875
0.000521365
0.000559485
0.000636496
0.000631146
0.000623983
0.000612602
0.000601556
0.000733485
0.00073372
0.000736591
0.000749808
0.00078184
0.00101161
0.000969119
0.000951147
0.000944719
0.000942178
0.0010883
0.00109707
0.00110432
0.001105
0.00110957
0.00142126
0.0013783
0.00136407
0.00136467
0.00136925
0.00158223
0.0015829
0.00158717
0.00160443
0.00165515
0.00146932
0.00146774
0.00146538
0.0014621
0.00146005
0.00144875
0.0014539
0.00145837
0.00146317
0.00149028
0.00181424
0.00178878
0.00176863
0.00176087
0.00175978
0.00184502
0.00184649
0.00185217
0.00187174
0.00193006
0.00163714
0.00164099
0.00164089
0.00163925
0.00163743
0.00167441
0.00167722
0.00168067
0.0016868
0.00171033
0.00195287
0.00194298
0.00192342
0.00191138
0.00190632
0.00193496
0.00194025
0.00195225
0.00197511
0.00199682
0.00207828
0.00203862
0.00201816
0.00200826
0.00200397
0.00172694
0.00172622
0.00172135
0.00171089
0.00170876
0.00176412
0.00176612
0.00177479
0.00178017
0.00178206
0.00186716
0.00186505
0.00186226
0.00185966
0.00185495
0.00192815
0.00194501
0.00194823
0.00194879
0.00194902
0.00204078
0.00204062
0.00203999
0.00203562
0.00201177
0.00197728
0.00199593
0.00199988
0.00200087
0.00200067
0.00200505
0.00199765
0.00198494
0.00196329
0.00192705
0.00197006
0.00197068
0.00197914
0.00198642
0.00199085
0.0021423
0.00214847
0.00215776
0.00216265
0.00212492
0.00202344
0.00209526
0.00210027
0.00209617
0.00209255
0.00202982
0.00202777
0.00202409
0.00201739
0.00197987
0.00209878
0.00209413
0.00208898
0.00208579
0.00208638
0.00204217
0.00188913
0.00199086
0.00193737
0.00195629
0.00216906
0.00177935
0.00193265
0.00224109
0.00181462
0.00208467
0.00282106
0.0019468
0.00215174
0.00215284
0.00249409
0.00197074
0.00167021
0.00123856
0.00087703
0.000620016
0.000548017
0.000605573
0.000705736
0.000761029
0.000720583
0.000614311
0.000501875
0.000413347
0.000376484
0.000336521
0.000422235
0.000425319
0.000420959
0.000416241
0.000413057
0.000346634
0.000353524
0.000359134
0.000362084
0.000371201
0.000583791
0.000566943
0.000548802
0.00053674
0.000529987
0.000750409
0.000759064
0.000771321
0.000786641
0.000815478
0.00079554
0.000770039
0.000764927
0.000758952
0.000752386
0.00110633
0.00111415
0.00113027
0.00115984
0.00120128
0.00139827
0.00134648
0.00132688
0.00131567
0.00130888
0.00129347
0.00129797
0.00130281
0.00130935
0.00133986
0.00169187
0.00165901
0.00163262
0.00161909
0.00161348
0.00171146
0.00171597
0.00172472
0.00174166
0.0017781
0.00142741
0.00140951
0.00141096
0.0014142
0.00141598
0.00154087
0.0015412
0.00154182
0.00154345
0.00155621
0.00163384
0.00163405
0.00163178
0.00162853
0.00162597
0.0017143
0.00172197
0.00173072
0.00173132
0.00170193
0.0017441
0.00177148
0.00176752
0.00175642
0.00174604
0.00194116
0.00194904
0.00196088
0.0019659
0.00192429
0.00191625
0.00193392
0.00193559
0.00193624
0.00193634
0.00193225
0.00193097
0.00192716
0.00191923
0.00188769
0.002005
0.00204011
0.00204995
0.00205511
0.00205846
0.00211685
0.00211819
0.00211964
0.00211621
0.00208046
0.00209743
0.00210627
0.00210976
0.00211443
0.00211813
0.00223483
0.00224228
0.00225322
0.00225365
0.00218458
0.00198926
0.00194515
0.001952
0.00196995
0.00198296
0.00222276
0.00221942
0.0022146
0.00220873
0.00218587
0.00212775
0.00210445
0.00210234
0.00210515
0.00210698
0.00213993
0.00214697
0.00215602
0.00215501
0.00210335
0.00195158
0.0020456
0.00204996
0.00204081
0.00203259
0.00214155
0.00214939
0.00216277
0.0021629
0.00205367
0.0018548
0.00187292
0.00188249
0.0018882
0.00189113
0.00204925
0.00205443
0.00205854
0.00205205
0.00201727
0.00201505
0.00191642
0.0018885
0.00202311
0.0020334
0.00188314
0.00193201
0.0019393
0.00194043
0.00193977
0.00202763
0.00203079
0.00203414
0.00203541
0.00200043
0.00193083
0.00193283
0.00194704
0.00192712
0.00188193
0.00191601
0.00195539
0.00195421
0.00185614
0.00190101
0.00197965
0.00196947
0.00195821
0.00219643
0.00207015
0.00202197
0.00206757
0.0020204
0.00200008
0.00194978
0.00185804
0.00188127
0.00196508
0.00199707
0.00197695
0.00204895
0.00203219
0.00202349
0.00203091
0.00202832
0.00200676
0.00206115
0.00214308
0.00207905
0.00202527
0.00198803
0.00197075
0.00193573
0.00198954
0.00201719
0.00201838
0.00200278
0.0020045
0.00200454
0.00196684
0.0019426
0.00197863
0.00195172
0.00191831
0.00183258
0.0019229
0.00191953
0.0018046
0.00185112
0.0019565
0.00189826
0.00183761
0.00186717
0.00190775
0.0019493
0.00195966
0.00196443
0.0019437
0.00192347
0.00195518
0.00199845
0.00192993
0.00194888
0.00199118
0.0019717
0.00195899
0.00194673
0.00198416
0.00214148
0.00197825
0.00197589
0.00208653
0.00193478
0.0019252
0.00176716
0.00154027
0.00122682
0.00090622
0.000767858
0.000801168
0.00112584
0.00127821
0.00159238
0.00175808
0.00178681
0.00180085
0.00181105
0.00210643
0.00212202
0.00213893
0.00214443
0.00209667
0.0015079
0.00158186
0.00159329
0.00159314
0.00158884
0.00222389
0.00224552
0.0022724
0.00228282
0.0022411
0.0016076
0.00158116
0.00157944
0.00158219
0.00158214
0.00226994
0.00229251
0.00232504
0.00235488
0.0023201
0.00230078
0.00240512
0.00241454
0.00240324
0.00239143
0.0017181
0.00172038
0.00171797
0.00170774
0.00166566
0.00152666
0.00159158
0.00159235
0.00158989
0.00158764
0.00200895
0.00201932
0.00203251
0.00204857
0.00210644
0.00159074
0.00155205
0.00155012
0.0015523
0.00155076
0.00162141
0.00162309
0.00162587
0.0016342
0.00166363
0.00210067
0.00201363
0.00198514
0.00197088
0.00196173
0.00187635
0.00188711
0.00190588
0.00193647
0.00196417
0.00201285
0.00192654
0.0019033
0.00189449
0.00188994
0.00185762
0.00186364
0.00187674
0.00190222
0.00194758
0.0018733
0.00181488
0.00180685
0.00180983
0.00181332
0.00159882
0.00155577
0.00155109
0.00155163
0.00155059
0.00162077
0.00162049
0.00161854
0.00162015
0.00164918
0.00195297
0.00192137
0.00189962
0.00188852
0.00188418
0.00183316
0.00183171
0.00183362
0.00185383
0.00194869
0.00190073
0.00189612
0.00189889
0.00190003
0.00189981
0.00194596
0.00194537
0.00194394
0.001942
0.00194776
0.00200158
0.00191451
0.00178932
0.00159152
0.00150875
0.00149672
0.00149902
0.00149912
0.00149721
0.00175965
0.00176225
0.00176876
0.00178815
0.0018219
0.00182931
0.00180219
0.00178719
0.00178293
0.00178224
0.00157497
0.00157851
0.00158183
0.00157957
0.00157413
0.00145307
0.00143144
0.00141672
0.00141017
0.0014072
0.00120295
0.00120485
0.00121139
0.00122876
0.00125279
0.00120642
0.00118746
0.001177
0.00117394
0.00117349
0.00100828
0.00101487
0.001021
0.00102165
0.00101937
0.00105956
0.00107809
0.00107786
0.00106827
0.00105788
0.000795513
0.000794767
0.000796215
0.000804677
0.000827859
0.000868332
0.000849652
0.000847609
0.000849535
0.000851138
0.000812369
0.000813246
0.00081596
0.000824603
0.000850286
0.000828074
0.000837196
0.000831091
0.000819519
0.000809532
0.000577063
0.000576123
0.000575719
0.000579718
0.000599073
0.000627662
0.000595937
0.000590826
0.000591136
0.000591977
0.000577441
0.000579444
0.000582598
0.000589381
0.000613962
0.000670543
0.000673453
0.000666065
0.000655028
0.000645621
0.000643223
0.000642262
0.000642449
0.000649132
0.000679794
0.000827858
0.000802261
0.0007955
0.000796166
0.000797777
0.000716708
0.000627117
0.000640206
0.000616191
0.000607775
0.00060257
0.000598761
0.000530594
0.000517229
0.000566154
0.000571631
0.000567991
0.000560578
0.000554042
0.000515185
0.000512767
0.000511801
0.000517318
0.000549293
0.000488243
0.000473819
0.000469387
0.000465069
0.000461109
0.00041637
0.000416742
0.000417987
0.000422305
0.000439498
0.000364782
0.000348467
0.000344375
0.00034565
0.000347272
0.000389418
0.00039173
0.000396263
0.000407494
0.000434472
0.00046879
0.000456813
0.000450967
0.00044204
0.00043348
0.00058515
0.000586876
0.000593312
0.000611111
0.000647541
0.000861458
0.000813377
0.000792304
0.000782147
0.000776324