/*--------------------------------*- C++ -*----------------------------------*\
  =========                 |
  \\      /  F ield         | OpenFOAM: The Open Source CFD Toolbox
   \\    /   O peration     | Website:  https://openfoam.org
    \\  /    A nd           | Version:  7
     \\/     M anipulation  |
\*---------------------------------------------------------------------------*/
FoamFile
{
    version     2.0;
    format      ascii;
    class       volVectorField;
    location    "4.75";
    object      wallShearStress;
}
// * * * * * * * * * * * * * * * * * * * * * * * * * * * * * * * * * * * * * //

dimensions      [0 2 -2 0 0 0 0];

internalField   uniform (0 0 0);

boundaryField
{
    outlet1
    {
        type            calculated;
        value           uniform (0 0 0);
    }
    Wall
    {
        type            calculated;
        value           nonuniform List<vector> 
40276
(
(0.000378868 5.10184e-05 0.000178359)
(-0.000186643 -8.16856e-06 0.000415517)
(-0.0001903 -7.4663e-06 0.00040736)
(0.000130573 -8.29762e-05 0.000152955)
(0.000103066 -4.5469e-05 0.000139481)
(8.17962e-05 7.17726e-07 0.000140749)
(8.45171e-05 2.88291e-05 0.000149611)
(0.000126361 3.60661e-05 0.000176262)
(0.000104089 3.20171e-05 0.000165976)
(9.67283e-05 2.76032e-05 0.000162644)
(0.000416025 4.24256e-05 0.000444357)
(0.000502761 1.91531e-05 0.000483961)
(0.000584062 4.20089e-05 0.000938089)
(0.000562731 4.44803e-05 0.000870138)
(0.000432513 -7.90502e-06 0.000312166)
(0.000389236 9.71684e-06 0.000344679)
(0.00037607 2.88346e-05 8.99411e-05)
(0.000341781 2.78217e-05 4.60307e-05)
(-6.79813e-05 -4.10745e-05 -0.000101302)
(-7.17432e-05 -6.81802e-05 -0.00011097)
(-0.000143788 3.65112e-05 0.000211155)
(-0.0001743 4.1367e-05 0.000198373)
(-0.000116186 3.1343e-05 6.78225e-05)
(-0.000134749 2.88883e-05 6.4202e-05)
(-9.81793e-05 2.32966e-05 4.33849e-05)
(-0.000110377 2.43493e-05 3.76678e-05)
(-0.000114926 3.91416e-05 1.89963e-05)
(-0.000112998 3.95451e-05 1.37638e-05)
(-0.000176156 5.67549e-05 3.25262e-05)
(-0.000156498 4.82115e-05 2.36162e-05)
(-0.000126955 4.16206e-05 7.89746e-05)
(-0.000143033 5.01179e-05 8.71444e-05)
(-5.25745e-05 -3.15365e-06 0.000159684)
(-4.6817e-05 -4.84148e-06 0.000148414)
(-5.72609e-05 1.0035e-05 7.4102e-06)
(-5.64531e-05 1.13386e-05 7.04608e-06)
(0.000578113 6.10437e-05 0.000181988)
(0.000626775 3.90533e-05 0.000192856)
(0.00109368 0.00026166 0.000348013)
(0.00124951 0.00034261 0.000371282)
(0.000997678 5.44783e-05 0.00011281)
(0.000946583 2.45797e-05 0.000138676)
(-4.37111e-05 -1.43789e-05 -0.000393784)
(-2.28246e-05 -1.12942e-05 -0.000362805)
(-4.63574e-05 -1.69298e-06 -0.000363712)
(-4.08355e-05 -6.34156e-06 -0.000305508)
(-6.99003e-05 7.28483e-08 -0.000313772)
(-5.42325e-05 -3.23967e-06 -0.000258687)
(-6.52049e-05 -6.77597e-07 -0.000228213)
(-6.48584e-05 1.40474e-06 -0.000194851)
(-5.44172e-05 -1.4143e-06 -0.000165017)
(-6.72768e-05 1.79638e-06 -0.000172448)
(-5.98351e-05 -3.12506e-07 -0.000142486)
(-6.29976e-05 2.82995e-06 -0.000143697)
(0.000436504 7.67659e-05 0.0002426)
(0.000454401 9.06576e-05 0.000211744)
(-2.57658e-05 1.67224e-05 0.00014764)
(6.40106e-05 2.20275e-05 0.000190743)
(-1.92341e-05 1.19743e-05 0.000150853)
(-0.000464552 -9.72636e-05 -0.000444442)
(-0.000490229 -8.11579e-05 -0.000451764)
(1.90293e-05 3.45345e-05 0.000291005)
(-1.27658e-05 -1.17528e-05 0.000224926)
(7.54999e-06 -5.88613e-07 -2.89967e-05)
(1.01047e-05 1.75764e-06 -2.44521e-05)
(5.55351e-06 8.64638e-08 -2.44017e-05)
(2.22602e-06 -1.52537e-06 -2.39314e-05)
(7.98569e-06 1.05825e-07 -2.68181e-05)
(-0.000112543 -1.51759e-05 -0.000102605)
(-0.000123933 -4.63075e-06 -0.000111276)
(-5.93674e-05 5.12721e-06 -0.000122079)
(-5.94439e-05 -1.35784e-07 -0.000124557)
(-2.4212e-05 1.82852e-06 -2.51192e-05)
(-2.41187e-05 1.83323e-06 -2.43148e-05)
(-2.15491e-05 1.84972e-06 -2.31067e-05)
(-2.05981e-05 2.30484e-06 -2.21389e-05)
(-2.34175e-05 1.05817e-06 -2.32521e-05)
(2.16773e-05 -1.41706e-06 -7.6906e-06)
(1.87101e-05 -1.5348e-06 -1.13372e-05)
(7.21141e-07 4.24001e-06 5.01347e-08)
(1.59003e-06 2.26805e-07 4.96793e-08)
(8.39908e-06 -3.82428e-07 -4.9985e-07)
(1.88497e-05 -4.95227e-07 1.29536e-05)
(1.80304e-05 -5.29257e-07 1.31347e-05)
(2.48379e-05 -3.83831e-06 1.74161e-05)
(5.54816e-06 3.67108e-07 -1.96168e-05)
(2.47615e-06 -9.9176e-07 -1.9177e-05)
(5.29808e-06 5.42742e-07 -1.53724e-05)
(2.26608e-05 -3.94535e-06 1.63684e-05)
(2.26451e-05 -5.00219e-06 1.65355e-05)
(1.9586e-05 -4.48094e-06 1.48461e-05)
(-3.96551e-05 -4.18861e-06 -3.59081e-05)
(2.38718e-06 -5.73468e-07 -1.51296e-05)
(4.9518e-06 6.46573e-07 -1.19302e-05)
(2.33951e-06 -2.72713e-07 -1.18916e-05)
(2.08207e-06 -1.34369e-07 -9.21152e-06)
(1.72253e-06 3.00328e-08 -7.09362e-06)
(1.16064e-06 7.43657e-08 -5.67909e-06)
(-1.65699e-06 -9.82895e-08 -4.40488e-06)
(-2.36315e-06 -4.21339e-08 -4.19673e-06)
(-3.19649e-06 -2.13698e-08 -4.35375e-06)
(-6.6045e-06 -1.29209e-07 -7.29152e-06)
(-7.00214e-06 -1.17531e-07 -8.1448e-06)
(-4.46673e-05 -4.79512e-07 -3.92174e-05)
(-7.39473e-06 -2.32505e-08 -9.28576e-06)
(-1.66064e-05 -5.72623e-06 -2.02111e-05)
(-1.37929e-05 -5.68868e-06 -1.61057e-05)
(-7.467e-06 -9.86361e-08 -1.02892e-05)
(-7.51459e-06 4.27152e-09 -1.15751e-05)
(-7.16548e-06 -3.86692e-07 -1.22176e-05)
(-7.45531e-06 1.01817e-08 -1.3167e-05)
(-6.97099e-06 -4.54781e-07 -1.40889e-05)
(-6.67857e-06 -2.11914e-07 -1.46317e-05)
(-6.39713e-06 -8.11189e-07 -1.60997e-05)
(-6.25696e-06 -1.27121e-06 -1.52442e-05)
(4.05018e-06 -8.84581e-07 -2.57548e-05)
(3.7355e-06 -2.86769e-06 -2.74068e-05)
(2.08144e-06 -2.89883e-06 -2.59983e-05)
(-0.000273883 -6.27494e-05 0.000485334)
(-0.000276713 -6.12018e-05 0.000440156)
(-1.24971e-05 -1.21714e-06 5.3484e-06)
(-1.16001e-05 -1.45686e-06 7.32601e-06)
(-3.78534e-05 -2.10152e-06 1.87462e-05)
(-3.19244e-05 -3.27379e-06 1.69838e-05)
(-3.50703e-06 -1.16791e-05 -4.38588e-06)
(-1.49796e-06 -1.1411e-05 -2.02157e-06)
(-0.000127547 2.56742e-05 0.000184143)
(-0.000110717 3.44604e-05 0.000156571)
(-0.000160149 -1.6927e-05 0.000274221)
(-0.000139951 -2.29481e-05 0.000236089)
(-0.000103156 -5.58276e-06 0.000173204)
(-9.02619e-05 -8.65528e-06 0.000149085)
(-0.000157108 9.49935e-05 0.000469312)
(-0.000218348 0.000169494 0.000657295)
(7.75504e-06 -1.20011e-05 0.000188694)
(-8.53868e-07 -4.76461e-06 0.000159344)
(-0.000102115 2.75518e-05 0.000193082)
(-5.56653e-05 1.27898e-06 0.000167544)
(-0.000181713 -5.41217e-05 0.000493507)
(-0.000181927 -3.66207e-05 0.000493923)
(-0.000181673 -4.26263e-05 0.00052711)
(-0.000198083 -1.8677e-05 0.000528951)
(-0.000559822 1.94314e-06 -0.000151399)
(-0.000642232 2.62018e-06 -0.00018355)
(-2.27567e-05 -7.96786e-05 9.95839e-06)
(-2.65509e-05 -7.89424e-05 1.19245e-05)
(-2.14639e-05 -4.38529e-05 6.54633e-05)
(-2.5225e-05 -5.3638e-05 8.17979e-05)
(-2.90562e-05 -5.25355e-05 6.60653e-05)
(-2.32278e-05 -4.04429e-05 5.37301e-05)
(-1.54693e-05 -8.6147e-05 8.48789e-06)
(-1.98966e-05 -9.83546e-05 6.53329e-06)
(-2.34984e-05 -8.34788e-05 8.81963e-06)
(-2.18856e-05 -8.64864e-05 9.21299e-06)
(-2.31359e-05 -0.000128636 -1.56103e-05)
(-1.99742e-05 -0.000111411 -1.41257e-05)
(-7.64316e-06 -5.66216e-05 -3.31688e-06)
(-9.87904e-06 -5.0537e-05 -4.75771e-06)
(-6.09785e-05 -3.11941e-05 9.45447e-05)
(-5.57661e-05 -3.30191e-05 8.93442e-05)
(8.64749e-05 4.12387e-06 -0.000235602)
(9.36185e-05 -4.64284e-06 -0.000220567)
(-0.000136954 -5.89908e-05 -1.2471e-05)
(-0.000135797 -6.59387e-05 -1.46579e-05)
(-0.000300253 -4.81501e-05 0.000144468)
(-0.00032222 -5.23345e-05 0.00013553)
(-0.000290826 -7.36722e-05 -2.59912e-05)
(-0.00028419 -6.09898e-05 -3.51579e-05)
(-0.000172731 0.000193271 0.000235212)
(-0.000166443 0.000241863 0.000218241)
(-0.000248915 -4.47579e-05 1.31718e-05)
(-0.000130986 -4.65802e-05 -1.84571e-05)
(-0.000206926 -7.77164e-05 7.4753e-05)
(-0.000178286 -7.6156e-05 6.32138e-05)
(-0.000227616 -5.19347e-05 5.88263e-05)
(-6.73005e-05 -4.2062e-05 -7.08829e-06)
(-3.91111e-05 -2.0909e-05 6.0514e-05)
(-3.22306e-05 -1.93868e-05 5.58679e-05)
(0.000617074 -0.000253071 0.000440017)
(0.000553161 -0.000214434 0.000362301)
(0.000554757 -0.000322306 0.000233219)
(0.000503814 -0.000229742 0.000261496)
(0.000519801 -0.000276371 0.000248508)
(0.000296336 -0.000223789 0.000184048)
(0.000396137 -0.000275933 0.000216879)
(0.000312296 -0.00021812 0.000192798)
(0.000491437 -0.000238278 0.00036828)
(0.00052497 -0.000294033 0.000353909)
(0.000507161 -0.00027796 0.000299856)
(0.000412839 -0.000297828 0.000186799)
(0.00051405 -0.000337356 0.000184271)
(0.000429573 -0.000263388 0.000234723)
(0.000186553 -0.000137195 0.000158051)
(0.000287762 -0.000228511 0.000182509)
(0.000225242 -0.00015652 0.000179551)
(0.000174857 -0.000127433 0.000163159)
(8.30013e-05 -1.26423e-05 0.000138271)
(0.000243293 9.55039e-05 6.99571e-05)
(0.000299288 9.71381e-05 0.000113202)
(0.000258869 6.77049e-05 0.000123008)
(0.00027322 5.51573e-05 6.87623e-05)
(0.000328294 5.87365e-05 0.00010823)
(0.000293634 8.83398e-05 0.000110752)
(0.000267265 6.88536e-05 9.31498e-05)
(9.12426e-05 2.2238e-05 0.000136506)
(9.64276e-05 3.369e-05 0.000126345)
(0.000103755 3.10473e-06 0.000165713)
(0.000108013 -1.84193e-06 0.000175468)
(0.000122853 9.3596e-06 0.000183128)
(0.000100831 8.15287e-06 0.000156781)
(0.000104081 1.30777e-06 0.000178328)
(7.79933e-05 6.90502e-06 0.000144456)
(6.2501e-05 2.23558e-06 0.000115849)
(6.27359e-05 -1.63494e-05 0.000128746)
(7.32455e-05 -8.40874e-06 0.000134727)
(3.81584e-05 -3.46846e-05 0.00010845)
(5.98063e-05 -2.43874e-05 0.000112769)
(4.36817e-05 -1.50996e-05 9.8954e-05)
(2.48813e-05 -2.16382e-05 8.36151e-05)
(3.18878e-05 -2.35329e-05 8.85035e-05)
(0.000126871 6.34869e-05 9.10123e-05)
(0.000148777 7.25315e-05 9.79241e-05)
(0.000152339 6.74236e-05 0.000105269)
(0.000147886 6.73293e-05 7.98415e-05)
(9.12007e-05 3.43696e-05 0.00011506)
(0.00010146 4.39534e-05 9.03992e-05)
(0.00010615 5.36243e-05 6.20783e-05)
(0.000109303 4.85286e-05 6.5925e-05)
(9.34936e-05 4.04979e-05 7.49859e-05)
(0.000223248 8.96035e-05 6.44981e-05)
(0.000175764 7.93398e-05 6.0703e-05)
(0.000242822 8.63356e-05 7.46455e-05)
(0.000226505 6.59135e-05 6.26131e-05)
(0.000190162 7.77746e-05 4.78517e-05)
(0.00018054 6.22615e-05 5.38855e-05)
(5.90618e-05 1.17686e-05 8.98368e-05)
(6.29398e-05 1.74779e-05 8.65202e-05)
(4.5818e-05 -3.63813e-06 9.85065e-05)
(6.76403e-05 2.7869e-05 7.29228e-05)
(2.86963e-05 -8.08315e-06 6.94166e-05)
(3.81121e-05 9.99539e-06 5.4937e-05)
(8.33579e-05 3.67746e-05 7.30142e-05)
(0.000116099 5.5251e-05 4.84972e-05)
(4.10849e-05 2.08188e-05 2.52186e-05)
(5.72383e-05 2.67294e-05 3.82263e-05)
(4.33115e-05 2.19488e-05 3.12088e-05)
(9.74599e-05 5.42087e-05 2.24349e-05)
(0.000132231 6.466e-05 8.59941e-06)
(0.00012609 4.83377e-05 3.97039e-05)
(0.000120378 5.63986e-05 2.90785e-05)
(0.000304779 2.50908e-05 0.000532107)
(0.000343035 5.37945e-05 0.000621835)
(0.000309055 -3.20624e-06 0.000550471)
(0.000318452 2.65389e-05 0.000562576)
(0.000376106 0.000105405 0.000424733)
(0.00041068 0.000112774 0.000509329)
(0.000293067 0.000101305 0.000419697)
(0.000322648 9.6031e-05 0.000482367)
(0.000299804 0.000105008 0.00045803)
(0.000282895 8.74216e-05 0.000474141)
(0.000403319 0.000159042 0.000531638)
(0.000338636 0.000135382 0.000401116)
(0.000389675 0.00014323 0.000503008)
(0.000246497 9.21918e-05 0.000409527)
(0.000332752 0.000119976 0.000511947)
(0.000426881 0.000136298 0.000410772)
(0.000374799 0.000137763 0.000474764)
(0.000370642 0.000136147 0.000479496)
(0.000418605 0.000135396 0.000582765)
(0.000437359 0.000172074 0.000519866)
(0.000479935 0.000186122 0.000515699)
(0.000464552 0.000189852 0.000480618)
(0.000456228 0.000158201 0.000577086)
(0.000442018 0.000162475 0.000578343)
(0.000430414 8.01328e-05 0.000506264)
(0.000549391 8.63765e-05 0.000540297)
(0.000420482 0.000100394 0.000519649)
(0.000319472 9.97874e-05 0.000399893)
(0.000405378 9.69419e-05 0.000501384)
(0.000442911 7.59882e-05 0.000438583)
(0.000330496 6.03908e-05 0.000328119)
(0.000353564 0.000106735 0.000388014)
(0.000384069 8.92063e-05 0.00038068)
(0.000384883 9.91717e-05 0.000368316)
(0.000531042 -4.13731e-05 0.000472982)
(0.000549384 -6.07188e-05 0.00047092)
(0.000570688 -0.000155649 0.000446527)
(0.000437703 -6.7347e-05 0.000397859)
(0.000528119 -0.000132867 0.000341304)
(0.000409128 -9.58948e-06 0.000363816)
(0.000573555 -0.000145612 0.000364994)
(0.000382984 -3.05366e-05 0.000302491)
(0.000499011 -0.000111374 0.000283732)
(0.000599434 -0.000238253 0.000270559)
(0.000358354 6.15025e-05 0.0003744)
(0.000358455 8.98993e-05 0.000388346)
(0.000399242 2.38129e-05 0.000316416)
(0.000393322 6.53352e-05 0.000331524)
(0.00041568 0.000149875 0.000402035)
(0.000442253 0.000152074 0.00053133)
(0.000443964 0.000151754 0.000481464)
(0.000461771 0.000133347 0.000392895)
(0.000516498 0.000168827 0.000434236)
(0.000507393 0.00019298 0.000542864)
(0.000450186 0.000156761 0.000537437)
(0.000479495 0.000156445 0.000570005)
(0.00048182 0.000176417 0.000407841)
(0.000462523 0.000163123 0.000542603)
(0.000463601 0.000167687 0.000544582)
(0.000576644 0.00020835 0.000669493)
(0.000554767 0.000198527 0.000526254)
(0.000416391 0.000121362 0.000381372)
(0.000588423 0.000185747 0.000431354)
(0.000468371 0.000107339 0.000394802)
(0.000600908 0.000151699 0.000399257)
(0.000524296 0.000182463 0.000444598)
(0.00053167 0.000167823 0.000520369)
(0.000708348 0.000267781 0.000530673)
(0.000562448 0.000191618 0.000430429)
(0.00053991 0.000164358 0.000455757)
(0.00075214 0.000266185 0.000481568)
(0.000571778 0.00024744 0.000487656)
(0.000609601 0.000211072 0.000601799)
(0.000566031 0.000183153 0.000637029)
(0.000668888 0.000229467 0.00062071)
(0.00067028 0.000236609 0.000599763)
(0.000351143 0.000136479 0.000467108)
(0.000345132 0.000128829 0.000465954)
(0.000235747 6.7307e-05 0.000435805)
(0.000343277 0.000127464 0.000503155)
(0.000428872 0.000117572 0.00064794)
(0.000393278 0.000107989 0.000599964)
(0.000375814 0.000139723 0.00049656)
(0.000397247 0.00014915 0.00051978)
(0.000380576 0.000143244 0.000566513)
(0.000358985 5.71566e-05 0.000646148)
(0.000309766 3.62709e-05 0.000581166)
(0.000366101 0.00010249 0.000613819)
(0.000345265 9.01582e-05 0.000596713)
(0.000309261 3.51649e-05 0.000507068)
(0.00042152 0.000163729 0.000541457)
(0.000446088 0.000133305 0.000628)
(0.000396217 0.000115715 0.000607143)
(0.000381403 -1.16123e-05 0.000633923)
(0.000474997 0.000137898 0.000720718)
(0.000356491 5.21567e-05 0.000618307)
(0.000461668 0.000180356 0.000534877)
(0.000503702 0.000191419 0.000577652)
(0.000449868 0.000137024 0.000640325)
(0.000434466 0.000167282 0.000565752)
(0.000503778 0.000197436 0.0005736)
(0.000503143 0.00012106 0.000705012)
(0.000510678 0.000137317 0.000785146)
(0.00040623 3.82084e-05 0.000682582)
(0.000371595 3.87247e-05 0.000612489)
(0.000403579 6.79846e-05 0.000651244)
(0.000459228 0.000123505 0.000687933)
(0.000391582 6.57444e-05 0.000609695)
(0.000510917 0.000211061 0.000608442)
(0.000511617 9.91856e-05 0.000754826)
(0.000590813 0.000184958 0.000853736)
(0.000275896 7.43624e-06 0.000482742)
(0.000288567 4.93048e-05 0.000496442)
(0.000349503 0.000127237 0.000547348)
(0.000368812 7.96328e-05 0.00062438)
(0.000344586 2.22046e-05 0.00057182)
(0.000432507 8.86204e-05 0.000688142)
(0.000329555 -1.57429e-05 0.00055703)
(0.000333474 3.36991e-05 0.000553651)
(0.000423498 0.000138861 0.000665888)
(0.000350262 4.31198e-05 0.0005952)
(0.000303301 3.39678e-05 0.000508709)
(0.000370925 -5.23258e-06 0.000611352)
(0.000319098 3.98797e-05 0.00053545)
(0.000346534 4.38089e-05 0.000570469)
(0.000420186 3.86714e-05 0.000686307)
(0.000327531 8.64644e-05 0.000562918)
(0.000326649 5.65943e-05 0.000549667)
(0.000414744 -5.92058e-05 0.000634843)
(0.000475365 0.000123147 0.000749801)
(0.00040728 -2.74749e-05 0.000688314)
(0.000519754 6.23452e-05 0.000849838)
(0.000397176 6.93293e-06 0.000664905)
(0.000417991 2.63323e-05 0.000686496)
(0.000527347 0.000156001 0.000766816)
(0.000421923 5.04849e-05 0.00067415)
(0.000481093 3.16563e-05 0.000766555)
(0.00051663 4.28471e-05 0.000846129)
(0.000524136 1.85069e-05 0.000840684)
(0.000416673 3.54988e-05 0.000666785)
(0.000469529 4.04645e-05 0.000745108)
(0.000419666 1.92091e-05 0.000666276)
(0.000476984 5.08103e-05 0.000755352)
(0.000547514 0.000171343 0.000697719)
(0.000538018 0.000190281 0.000627293)
(-2.10094e-05 -4.91113e-05 0.000160267)
(0.00056424 0.000147476 0.000783733)
(0.000490292 0.00013252 0.00067606)
(0.000618834 0.000226966 0.000676398)
(0.000573423 0.000218145 0.000607753)
(0.000611014 0.000212379 0.000685709)
(-2.52682e-05 -4.87841e-05 0.000159708)
(0.000546083 0.000170384 0.000723363)
(0.000561506 0.000202589 0.000663234)
(0.000609428 0.000223759 0.00069561)
(0.000556771 0.000164163 0.000774169)
(0.000623765 0.00017167 0.000917635)
(-2.29082e-05 -4.85669e-05 0.000156979)
(0.000465959 6.31214e-05 0.000736576)
(0.000432088 5.68422e-05 0.000711706)
(0.00046453 8.65936e-05 0.000711493)
(0.000526314 5.5056e-05 0.000798013)
(0.000463033 0.000100678 0.000707583)
(-2.53786e-05 -3.80751e-05 0.000159993)
(0.000575211 0.000230163 0.00067086)
(0.00059633 0.000117668 0.000844105)
(0.000684214 0.000214146 0.00093541)
(0.000656382 0.000216959 0.000781219)
(0.000720885 0.000254055 0.000656909)
(0.000781425 0.00029035 0.000657411)
(0.000645328 0.000186914 0.000839733)
(0.000604489 0.000172302 0.000754551)
(0.000635985 0.000258838 0.000628428)
(0.000669703 0.000238214 0.000683787)
(0.000647526 0.000205449 0.000766288)
(0.000713117 0.000244146 0.000814015)
(0.000743316 0.000284585 0.000786413)
(0.000663372 0.000206103 0.000844729)
(0.000686549 0.000168384 0.000947074)
(0.000561557 0.000132617 0.000791396)
(0.000631102 0.000138902 0.000982194)
(0.000510762 9.80854e-05 0.000761095)
(0.000591506 8.13509e-05 0.000894882)
(0.000736731 0.000243619 0.000933251)
(0.000610535 0.00019386 0.000777555)
(0.000653463 0.000171787 0.000930893)
(0.000545968 9.2877e-05 0.000878594)
(0.000562339 0.000147435 0.00080045)
(0.000739673 0.000135411 0.0010366)
(0.000641713 0.000143525 0.000996925)
(0.000591671 6.45638e-05 0.000949717)
(0.000590102 2.64217e-05 0.00094048)
(0.000476482 2.71603e-05 0.000790715)
(0.000467448 5.85928e-05 0.000738462)
(0.000604374 0.000119828 0.000874569)
(0.000620218 0.000130719 0.00096749)
(0.000579059 2.90128e-05 0.000906619)
(0.000597729 4.61745e-05 0.000940181)
(0.000604448 -2.70577e-05 0.000940747)
(0.000582363 5.07927e-05 0.000893295)
(0.000675359 0.000134749 0.000979468)
(-3.13536e-05 -4.31738e-05 0.000168382)
(0.000507204 3.4489e-06 0.000828222)
(0.000460623 5.6512e-05 0.000725707)
(0.000658273 0.000161356 0.000967936)
(0.000691531 0.000200519 0.00103204)
(0.000573032 3.58898e-06 0.000954354)
(0.000720011 7.61678e-05 0.00113352)
(0.000533665 5.46004e-05 0.000837914)
(0.000655941 4.24797e-05 0.00100619)
(0.00052607 7.41423e-05 0.000834192)
(0.000504587 4.48822e-06 0.000774252)
(0.000644498 -7.43579e-05 0.000957826)
(0.000704882 5.0513e-05 0.0011156)
(0.000703905 2.66785e-05 0.00110664)
(0.000346208 -4.91057e-05 0.000501455)
(0.000269457 1.90757e-05 0.000417037)
(0.000299959 1.12417e-05 0.000431562)
(0.000286939 8.56683e-06 0.000437849)
(0.000206692 3.71246e-05 0.000368839)
(0.000272504 2.93406e-05 0.000425853)
(0.000347204 7.28628e-06 0.000456743)
(0.000270825 4.68488e-05 0.000429703)
(0.000332666 4.20212e-05 0.000590136)
(0.000332469 5.75575e-05 0.000562432)
(-2.31206e-05 -4.18154e-05 0.000153552)
(-2.67894e-05 -4.38468e-05 0.000160451)
(-2.47889e-05 -4.05138e-05 0.000148625)
(-2.62718e-05 -3.68336e-05 0.000149487)
(0.000369884 3.57343e-05 0.000582661)
(0.000333721 7.60511e-05 0.000534899)
(0.000394732 1.89596e-05 0.0005357)
(0.000350279 3.77454e-05 0.000481906)
(0.00037615 -2.03927e-06 0.000497151)
(0.000369328 1.76121e-05 0.000472827)
(-2.97146e-05 -3.62232e-05 0.000154868)
(0.000387768 7.71011e-06 0.00050676)
(-3.50386e-05 -2.88931e-05 0.000164944)
(-3.01298e-05 -3.46039e-05 0.000155954)
(0.000392382 1.95499e-05 0.000224246)
(0.000384486 2.25396e-05 0.000258836)
(0.000371014 -2.3057e-06 0.000252939)
(-3.34703e-05 -3.44463e-05 0.00015398)
(-2.65232e-05 -3.83289e-05 0.000164632)
(-2.5918e-05 -4.18698e-05 0.000161173)
(-3.23235e-05 -3.37685e-05 0.000175068)
(-3.38654e-05 -4.23084e-05 0.000182679)
(-2.97073e-05 -3.02925e-05 0.000166677)
(-2.85692e-05 -2.62399e-05 0.000159476)
(-3.4669e-05 -3.44866e-05 0.000159059)
(0.000347048 6.15806e-05 9.52432e-05)
(0.000401259 6.16559e-05 0.000148323)
(0.000332458 3.58504e-05 0.000102596)
(0.000320413 6.37702e-05 8.82308e-05)
(0.000340016 4.91826e-05 0.000111447)
(0.000391892 1.85625e-05 0.000147199)
(0.000378428 2.01011e-05 0.000198915)
(0.000412261 -1.5004e-05 0.000214049)
(0.000404981 1.07077e-05 0.000182169)
(0.000379614 1.12668e-05 0.000215584)
(0.000376739 3.5943e-05 0.000120047)
(0.000393804 4.68933e-06 0.000129072)
(0.000387668 1.93424e-06 0.000363025)
(0.000365024 1.45825e-05 0.000389494)
(0.000368025 5.68166e-06 0.000413368)
(0.000327037 1.38404e-05 0.000394854)
(0.000354369 6.98971e-06 0.000422376)
(0.000295827 2.7781e-05 0.000393114)
(0.000421491 1.23044e-05 0.000407868)
(0.000432968 -1.14562e-05 0.000353662)
(0.000428576 -2.57519e-06 0.000335544)
(0.000371917 4.78155e-06 0.000339143)
(0.000366735 -7.21742e-06 0.000434985)
(0.000378233 -2.34342e-06 0.00038838)
(0.000402565 3.01739e-05 0.000492066)
(0.000452988 -1.30784e-05 0.000269832)
(0.000434726 -3.06743e-05 0.000349438)
(0.000439803 -3.44235e-05 0.000291812)
(0.000453954 -1.75154e-05 0.000360019)
(0.000479177 -5.69476e-05 0.000261642)
(0.000424426 -2.12592e-05 0.00039971)
(0.000406697 -2.20201e-05 0.000453544)
(0.000441073 -4.94715e-05 0.000433949)
(0.000445686 2.51814e-06 0.000515048)
(0.00051636 -6.0575e-05 0.000439045)
(0.000489611 -7.33439e-05 0.000367561)
(0.000495711 -6.95525e-05 0.000295588)
(0.000486591 -4.35415e-05 0.000370398)
(0.000427048 -3.07919e-05 0.000206494)
(0.00042189 -2.51419e-05 0.000168422)
(0.000452226 -2.50328e-05 0.000209356)
(0.000294458 6.97093e-05 5.80248e-05)
(0.000310058 5.71593e-05 8.41055e-05)
(0.000260024 7.51527e-05 3.5469e-05)
(0.000292366 6.72012e-05 5.28698e-05)
(0.000335397 3.58864e-05 8.00854e-05)
(0.000383042 8.44653e-06 0.000105035)
(0.000316624 4.87736e-05 7.59684e-05)
(0.000193237 7.04663e-05 1.73708e-05)
(0.000281753 8.27089e-05 3.24122e-05)
(0.000109835 5.1546e-05 4.48885e-05)
(0.000126691 5.46187e-05 2.63931e-05)
(0.000227906 8.62808e-05 1.88625e-05)
(0.000250554 6.84795e-05 5.88139e-05)
(0.000231364 3.86881e-05 -2.91562e-06)
(0.000277482 5.01238e-05 4.79892e-05)
(0.000336936 3.89203e-05 3.32024e-05)
(0.000226948 7.10029e-05 1.55174e-05)
(0.000220681 5.24192e-05 2.15935e-05)
(0.000302234 5.42993e-05 2.81708e-05)
(0.000549746 -0.000100152 0.000241037)
(0.000551115 -0.000105686 0.000391728)
(0.000533076 -0.000105957 0.000315224)
(0.000565155 -9.30826e-05 0.000396573)
(0.00043701 -1.32323e-05 0.000147965)
(0.000484757 -7.87526e-05 0.000210834)
(0.00044613 -3.63645e-05 0.00018478)
(0.000451696 -5.28166e-05 0.000193896)
(0.000406881 -5.26879e-06 0.000101856)
(0.000443667 -4.07484e-05 0.000144885)
(0.000530392 -9.26303e-05 0.000173892)
(0.000578082 -0.000102184 0.00022664)
(0.000599629 -0.000163105 0.000291968)
(0.000567035 -0.000112994 0.000212391)
(0.000533147 -0.000110876 0.000246687)
(0.000377588 2.00885e-05 5.68291e-05)
(0.000394047 -1.59341e-06 6.44634e-05)
(0.000428532 -4.90026e-05 0.000121397)
(0.00039988 -3.50898e-06 8.66693e-05)
(0.000414518 -2.65378e-05 8.58847e-05)
(0.000322382 3.57134e-05 5.82172e-05)
(0.000373668 -2.29496e-07 5.94034e-05)
(0.000552221 -8.63683e-05 0.000139932)
(0.000579806 -0.000136233 0.000164455)
(0.00061122 -0.000146377 0.000143818)
(0.000477018 -6.31783e-05 0.000134802)
(0.000439026 -2.86114e-05 0.000140459)
(0.000484324 -6.26404e-05 0.000111877)
(0.000295337 5.31996e-05 0.000504706)
(0.000314009 3.30016e-05 0.000520753)
(0.000352317 -1.76773e-05 0.000551083)
(0.000350924 1.01327e-05 0.000546589)
(0.000299696 7.06726e-05 0.000506076)
(0.000335848 6.52496e-06 0.000507805)
(0.000441905 -2.58983e-05 0.000658573)
(0.000313146 3.0891e-05 0.000514265)
(0.000345375 1.5493e-05 0.000533583)
(0.000395086 2.5413e-05 0.000609157)
(0.000387558 -5.38973e-06 0.000543209)
(0.000356362 1.67341e-05 0.000509102)
(0.000393342 1.92228e-05 0.000566843)
(0.000471414 -1.25777e-05 0.000672457)
(0.000481699 2.33266e-05 0.00079445)
(0.000360469 5.08444e-05 0.000578662)
(0.000409352 5.05005e-05 0.000663415)
(0.000399432 5.9695e-05 0.000671293)
(0.000426521 9.62151e-06 0.000657907)
(0.000563412 -6.38448e-05 0.000797703)
(0.000520153 -0.000101396 0.000701271)
(0.000426447 7.41621e-05 0.000703558)
(0.000447056 -4.06709e-06 0.000667221)
(0.000398536 1.79949e-05 0.000574442)
(0.000446691 1.45727e-05 0.000642959)
(0.000437668 -2.29226e-05 0.000562932)
(0.000392059 -9.99252e-06 0.000492414)
(0.000439528 -7.21585e-07 0.000574569)
(-3.62144e-05 -2.99749e-05 0.000160934)
(0.000514251 -8.50308e-05 0.000637641)
(0.000477643 -4.54538e-05 0.00054856)
(0.000524574 -7.66988e-06 0.000660922)
(0.000419189 -5.09944e-06 0.000613551)
(0.000485177 -3.33039e-05 0.000636553)
(0.000551887 -3.08028e-05 0.000731532)
(0.000500108 -7.72095e-05 0.000539328)
(0.000487944 -7.2267e-05 0.000452132)
(0.000477878 -1.78722e-05 0.000555862)
(0.000631074 -3.15372e-05 0.000965729)
(0.000436543 2.31251e-05 0.000677588)
(-3.63623e-05 -2.58058e-05 0.000148747)
(0.000466184 -7.23156e-07 0.000681259)
(0.000536344 3.36537e-06 0.000793455)
(0.000615438 -6.18145e-05 0.000879602)
(0.000622565 -0.000104018 0.000810757)
(0.000452702 -3.43758e-05 0.00059412)
(-4.14797e-05 -2.12475e-05 0.000160503)
(0.0005568 -0.000170016 0.000551365)
(0.000586549 -5.07567e-05 0.000733588)
(0.000605128 -6.84292e-05 0.00084701)
(0.000527095 -6.09934e-05 0.000704237)
(0.00058992 -3.29514e-05 0.000806906)
(0.000655929 -0.000103416 0.000803882)
(0.000579112 -7.4435e-05 0.00066506)
(0.000719414 -0.000191467 0.000824557)
(0.000629718 -0.00018389 0.000654623)
(0.000669212 -0.000120537 0.00080136)
(0.000478397 3.32205e-05 0.00075407)
(0.000482066 -1.88904e-05 0.00071365)
(0.000591447 -4.16372e-05 0.000858371)
(0.000642193 -3.37574e-05 0.000967596)
(0.000627193 -0.000123253 0.000887633)
(0.000572345 5.79045e-05 0.000882046)
(0.000663515 -8.38305e-05 0.000999881)
(0.000622965 9.19368e-05 0.000985162)
(0.000583963 -1.76489e-05 0.000886198)
(0.000570981 -4.49004e-05 0.000826966)
(0.000682073 -9.62268e-05 0.000960628)
(0.00055922 -7.15755e-05 0.000799976)
(0.000606717 -0.000111486 0.000781466)
(0.000693792 -0.000113743 0.000908469)
(0.000796367 -0.000181227 0.000990404)
(0.000609913 -0.000170473 0.000748428)
(0.00071086 -0.000256468 0.000695163)
(0.000741413 -0.000126249 0.000894905)
(0.000579601 -0.000125598 0.000461131)
(0.000490305 -0.000128942 0.000472826)
(0.000578654 -0.000151751 0.000482092)
(0.000566381 -5.62485e-05 0.000623196)
(0.000632845 -0.000127846 0.000645316)
(0.000618356 -0.00015258 0.000478028)
(0.000579715 -0.00016365 0.000416076)
(0.000634622 -0.000175233 0.000306569)
(0.000589614 -0.000123861 0.000404729)
(0.000678204 -0.00020298 0.000484134)
(0.000683157 -0.000248754 0.000350533)
(0.000679126 -0.000197854 0.000459712)
(0.000699959 -0.000206476 0.000651577)
(-4.4196e-05 -1.70804e-05 0.000158743)
(0.000657914 -0.000240326 0.000502737)
(0.000678259 -0.000176211 0.000642394)
(0.00080256 -0.000307278 0.000767417)
(0.000768098 -0.000324859 0.000549903)
(0.000741394 -0.000208985 0.000720556)
(-4.74844e-05 -1.23947e-05 0.00016005)
(0.000764872 -0.000303628 0.000549689)
(0.000800899 -0.000334329 0.000402168)
(-3.5987e-05 -3.43274e-05 0.000183167)
(0.000712282 -0.000219201 0.000536679)
(0.000631163 -0.000179441 0.000319161)
(-4.00371e-05 -2.70434e-05 0.000186413)
(0.000646628 -0.000168658 0.000270195)
(0.00063065 -0.000169291 0.000294844)
(-3.4276e-05 -3.41562e-05 0.000168471)
(0.000718979 -0.000182546 0.000228399)
(-3.74257e-05 -1.67075e-05 0.000169818)
(-4.07142e-05 -2.86237e-05 0.000183261)
(0.000719611 -0.000286503 0.000301269)
(0.000690046 -0.000228919 0.000262213)
(-4.18696e-05 -2.72025e-05 0.000182923)
(0.000681544 -0.000207438 0.000356139)
(0.000471422 -0.000303923 0.000219399)
(-4.54029e-05 -1.97827e-05 0.000178214)
(0.000526972 -0.000347274 0.000163206)
(0.000424417 -0.000288881 0.000159921)
(-4.44253e-05 -2.04319e-05 0.000182334)
(0.000337078 -0.000245429 0.000183239)
(0.000402561 -0.000294858 0.000172221)
(-4.83155e-05 -1.30526e-05 0.000191034)
(0.000296658 -0.000229126 0.000140625)
(0.000360171 -0.000234873 0.000233664)
(-3.71563e-05 -1.96135e-05 0.000164362)
(-3.36671e-05 -1.73954e-05 0.000151601)
(0.000402846 -0.000275297 0.000161611)
(-3.92934e-05 -2.37859e-05 0.00015406)
(-4.11491e-05 -1.82092e-05 0.000168341)
(0.000226319 -0.000172536 0.000156275)
(-3.96019e-05 -1.5836e-05 0.000152925)
(-4.35208e-05 -1.32185e-05 0.000166724)
(0.000289565 -0.000226689 0.000164673)
(-4.21173e-05 -1.26113e-05 0.000151089)
(0.000203307 -0.000159334 0.000132112)
(0.000122208 -9.91822e-05 0.000100737)
(0.000197925 -0.000152517 0.00015442)
(0.000139586 -9.74991e-05 0.000125969)
(0.000108898 -8.19443e-05 9.9305e-05)
(0.000162606 -0.000109383 0.000136761)
(0.000116726 -9.44505e-05 9.48484e-05)
(0.000226816 -0.000148696 0.000188291)
(0.000265946 -0.000182556 0.000166553)
(0.000282258 -0.000253693 8.49264e-05)
(0.000423343 -0.000327777 0.000110755)
(0.000299714 -0.000221543 0.000141497)
(0.000142479 -0.000126917 7.47905e-05)
(0.000270994 -0.000231073 0.000109848)
(0.000196086 -0.000149122 0.000129573)
(0.000159567 -0.000130016 0.000123096)
(0.000197959 -0.000140049 0.000153717)
(0.000248774 -0.000178922 0.000134532)
(8.21572e-05 -9.48775e-05 4.04148e-05)
(0.000149503 -0.000113307 0.000105793)
(0.000113458 -0.000108318 7.55446e-05)
(5.03727e-05 -4.82798e-06 7.90791e-05)
(7.10762e-05 -3.35206e-05 8.97817e-05)
(6.49111e-05 -9.20516e-06 9.93088e-05)
(6.39241e-05 6.01426e-06 0.000102989)
(6.51662e-05 3.36275e-05 0.00010404)
(3.91341e-05 1.62018e-05 7.19964e-05)
(-2.55155e-05 -3.87222e-05 0.000144908)
(4.10576e-05 1.88517e-05 7.82654e-05)
(3.72436e-05 8.45206e-06 5.53942e-05)
(4.53242e-05 3.59378e-05 7.35487e-05)
(2.99863e-05 4.0061e-05 4.75009e-05)
(9.96925e-05 -7.14567e-05 0.000103257)
(-2.8331e-05 -3.54283e-05 0.000147259)
(5.93775e-05 -3.41531e-05 7.42153e-05)
(0.000100936 -5.79193e-05 0.000108533)