/*--------------------------------*- C++ -*----------------------------------*\
  =========                 |
  \\      /  F ield         | OpenFOAM: The Open Source CFD Toolbox
   \\    /   O peration     | Website:  https://openfoam.org
    \\  /    A nd           | Version:  7
     \\/     M anipulation  |
\*---------------------------------------------------------------------------*/
FoamFile
{
    version     2.0;
    format      ascii;
    class       volScalarField;
    location    "1.75";
    object      p;
}
// * * * * * * * * * * * * * * * * * * * * * * * * * * * * * * * * * * * * * //

dimensions      [0 2 -2 0 0 0 0];

internalField   nonuniform List<scalar> 
382612
(
0.00231254
0.00226487
0.00218896
0.00219539
0.00211636
0.00256815
0.00230742
0.00207014
0.00198254
0.00183717
0.00192384
0.00191988
0.00186202
0.00215465
0.00208666
0.00233653
0.00228544
0.00239285
0.0022322
0.00229589
0.00234519
0.00240767
0.00247094
0.0026031
0.00256632
0.00252287
0.00248592
0.00321194
0.00328611
0.00334641
0.00339612
0.00318971
0.00316976
0.00314684
0.00311572
0.00297616
0.00243225
0.002366
0.00250051
0.00257174
0.00263893
0.00270158
0.00269386
0.00266102
0.00262032
0.00257507
0.0024939
0.00251631
0.00255224
0.00258328
0.00270237
0.00264878
0.00259235
0.00253514
0.00241802
0.00242789
0.0023741
0.00227979
0.00242262
0.00242974
0.0025014
0.00260542
0.00263465
0.00289621
0.00247235
0.00233364
0.00283622
0.00299477
0.00309126
0.00333553
0.00337276
0.00338401
0.00339169
0.00376134
0.00374575
0.00372454
0.00368555
0.00352173
0.00314343
0.00332362
0.00339433
0.0034397
0.00347126
0.00388619
0.00388958
0.00388848
0.00383689
0.00352491
0.0026665
0.00292309
0.00298868
0.00302079
0.00304195
0.00322389
0.00323479
0.00324549
0.00321264
0.00298474
0.002457
0.00235273
0.00246124
0.00250933
0.00256152
0.00262058
0.00251556
0.00249488
0.00247293
0.00246557
0.00231834
0.00235854
0.00239892
0.00243146
0.00267296
0.00261032
0.00254796
0.0024896
0.00235785
0.00218581
0.00213079
0.00217968
0.0022187
0.00224781
0.00240824
0.0023409
0.00227704
0.00221552
0.00207376
0.00193295
0.00207861
0.00235596
0.0024103
0.00243676
0.00245114
0.00265753
0.00266009
0.00266192
0.00264998
0.00269305
0.0026589
0.00262176
0.0026101
0.00259536
0.00258307
0.00209322
0.00207327
0.00204882
0.00201901
0.00218895
0.00223918
0.00227869
0.00231216
0.00233748
0.00229854
0.00226178
0.00223289
0.00225055
0.0022184
0.00214749
0.00214836
0.00216664
0.00218487
0.0020582
0.00213315
0.00219658
0.00200453
0.00200641
0.00201068
0.00236698
0.00253512
0.00179018
0.00191254
0.00226198
0.0019653
0.00204029
0.00205711
0.00206158
0.00207121
0.0020828
0.00208833
0.00272882
0.00274226
0.00276207
0.00276933
0.00266238
0.00193327
0.00195198
0.00195961
0.00197101
0.00198091
0.00253758
0.00255937
0.00259127
0.00261495
0.00257444
0.00219728
0.00232611
0.00238962
0.00240155
0.0024057
0.00241213
0.00213521
0.00213475
0.00213739
0.00215036
0.00161531
0.00163077
0.00164921
0.00165913
0.002187
0.00217148
0.00215235
0.00213532
0.00214832
0.0016107
0.00156437
0.00209257
0.00198403
0.00157377
0.0018418
0.00205892
0.00180198
0.00203205
0.00197094
0.0018007
0.00150828
0.00182748
0.00185292
0.00159365
0.00149756
0.0017995
0.0018191
0.00154615
0.00184685
0.00194642
0.00185437
0.00170691
0.00186845
0.001933
0.00200738
0.00207383
0.00228082
0.00215457
0.00228419
0.00243453
0.00222091
0.00207603
0.00216223
0.00218933
0.00222612
0.00226708
0.00260145
0.00258592
0.0025609
0.00250092
0.00293737
0.00292591
0.0029126
0.00289773
0.00356485
0.00354732
0.00352816
0.0034817
0.00326302
0.00296604
0.00287444
0.00294877
0.00298748
0.00300474
0.00302068
0.00258682
0.00258267
0.00256723
0.00254099
0.00255398
0.00316476
0.00316311
0.00318741
0.00320862
0.00322412
0.00319502
0.00317536
0.00314564
0.00312055
0.00312441
0.00350602
0.00350677
0.00351236
0.00352999
0.00354487
0.00380369
0.00380083
0.00379518
0.00377465
0.0036564
0.0035443
0.00372424
0.0037732
0.00379753
0.00381228
0.00437482
0.00437667
0.00437773
0.0043348
0.00402485
0.00312367
0.00322445
0.00325387
0.00328354
0.00330896
0.00326512
0.00325031
0.00322938
0.0031839
0.00297221
0.00263345
0.00278492
0.00284222
0.00288218
0.00290899
0.00337818
0.0033959
0.00342056
0.00341108
0.00319643
0.00206691
0.0021511
0.00217686
0.00220937
0.00223834
0.00265601
0.00274088
0.00276726
0.0027847
0.00279681
0.0024282
0.00240126
0.00236602
0.00233214
0.00223308
0.00288175
0.00300126
0.00299599
0.00296503
0.00294021
0.00200387
0.00198563
0.00196139
0.00194077
0.00188888
0.00263161
0.00263886
0.00261024
0.00257528
0.00255072
0.0018395
0.00183607
0.00183178
0.00184081
0.00190279
0.00188067
0.00186709
0.00187386
0.00189061
0.00190433
0.0023328
0.00235661
0.00238928
0.00242447
0.00247768
0.00188699
0.00179265
0.00178264
0.00179019
0.0017959
0.00232159
0.00233758
0.00236002
0.002378
0.00235588
0.00206867
0.00213831
0.0021696
0.00218005
0.00218367
0.00218767
0.00201882
0.00201583
0.00201365
0.00202149
0.00173212
0.00173549
0.00174431
0.00174942
0.00206424
0.00205841
0.00205053
0.00204158
0.00203395
0.00174207
0.00198423
0.00194884
0.00194745
0.00195299
0.00195572
0.0018583
0.00195373
0.00218953
0.00214434
0.00212358
0.00210968
0.00209952
0.00196028
0.00196088
0.00196078
0.00196015
0.00210308
0.00210354
0.00210242
0.00210314
0.00210453
0.00210304
0.00210235
0.00210024
0.00198048
0.00198448
0.00199009
0.00199241
0.00217149
0.00218012
0.00218901
0.00219596
0.002228
0.0020015
0.00209573
0.00210102
0.00204481
0.00173571
0.00192092
0.00195831
0.00176914
0.00174834
0.00197682
0.00195499
0.00162676
0.00218239
0.00218937
0.00209272
0.00202692
0.00195444
0.00209168
0.00176174
0.00175839
0.00189888
0.00209559
0.00223143
0.00216543
0.00215002
0.00214598
0.00214467
0.00207292
0.00206848
0.00206134
0.00206053
0.00210159
0.00238677
0.00236821
0.00235248
0.00234589
0.00234543
0.00231434
0.00231751
0.00232463
0.00234119
0.00239531
0.00217786
0.00212546
0.00212421
0.00212395
0.00212177
0.00212124
0.00214872
0.00214354
0.00213781
0.0021392
0.0019185
0.00192349
0.00192873
0.00193097
0.0020238
0.00202412
0.00202454
0.00202505
0.00203528
0.00191102
0.00210439
0.00208161
0.00208027
0.00207825
0.00207469
0.00205301
0.00212321
0.00213476
0.0020952
0.00209632
0.00210315
0.00210719
0.002282
0.00228007
0.00227632
0.00227489
0.00230117
0.00242376
0.00242635
0.00241929
0.0024142
0.00241211
0.002289
0.00228844
0.00228894
0.00229868
0.00235162
0.00233189
0.00230413
0.00229947
0.00229549
0.00229232
0.00210765
0.00210346
0.00209838
0.00209892
0.00211717
0.00211315
0.00210732
0.00210355
0.00209965
0.00210322
0.00210755
0.00211075
0.00211246
0.0021108
0.00211286
0.00211347
0.00231445
0.00230716
0.00229674
0.0022888
0.00231512
0.00214531
0.00212028
0.00214096
0.00220087
0.00199931
0.00203501
0.00208166
0.00203051
0.00181016
0.00197303
0.00200345
0.00181551
0.00227912
0.00219333
0.00214283
0.00220381
0.00211982
0.00211877
0.00218294
0.00221032
0.00233418
0.00227965
0.0022712
0.00222575
0.00222039
0.00222486
0.0022287
0.00235856
0.00235471
0.00234908
0.00234515
0.0023582
0.00243549
0.00243095
0.00242811
0.00242677
0.00242582
0.00234663
0.0023477
0.00234792
0.00234847
0.00237226
0.00244697
0.0024328
0.00243189
0.00243077
0.00242966
0.00241177
0.00240343
0.00239185
0.00238024
0.00238607
0.00224215
0.00221253
0.00220645
0.00220157
0.00219642
0.0023313
0.00232224
0.00231086
0.00229905
0.00230432
0.0021856
0.00211949
0.00212024
0.00212583
0.00212703
0.00212691
0.00213932
0.00213504
0.00212989
0.00213451
0.00218049
0.0021818
0.00218555
0.00218882
0.00212683
0.00212646
0.00212607
0.00212384
0.00212175
0.00219716
0.00220667
0.00214322
0.0021691
0.00220953
0.00202509
0.00206522
0.0021585
0.00216815
0.00220475
0.00213315
0.00203791
0.00202509
0.00184382
0.00192205
0.00205712
0.00214732
0.00208656
0.002055
0.00206785
0.00209125
0.00224938
0.00233813
0.00239524
0.00236582
0.00230475
0.00229841
0.00230168
0.00230524
0.00230769
0.00243581
0.00243836
0.00244326
0.00245111
0.00245785
0.00252394
0.00252237
0.00251785
0.00251455
0.00251254
0.00240874
0.00240377
0.00239714
0.00239321
0.00241457
0.0024955
0.00250998
0.00251467
0.00251533
0.00251506
0.00257979
0.00257933
0.00257962
0.00257876
0.00256432
0.00246772
0.00245085
0.00245483
0.00246279
0.00246846
0.00256247
0.00256271
0.00256194
0.00255595
0.00253879
0.00245014
0.00245612
0.00246164
0.00246568
0.00246801
0.00227922
0.0022756
0.00227032
0.00226251
0.00224664
0.00216059
0.00213052
0.00214425
0.0021496
0.00214934
0.00214713
0.00217291
0.00216929
0.00216434
0.00216041
0.00221828
0.00222209
0.00222903
0.00223772
0.00216692
0.00216305
0.00215607
0.00214429
0.00212249
0.00220608
0.00232581
0.0023506
0.00236032
0.00236957
0.00237739
0.00239409
0.002385
0.00237684
0.00237034
0.00234636
0.00220414
0.00213742
0.00216101
0.00216935
0.00217634
0.00218482
0.00225647
0.00224224
0.00222642
0.00221666
0.00222308
0.00223979
0.00225289
0.0022619
0.00222159
0.00220793
0.002194
0.00217355
0.00210596
0.00218622
0.00233209
0.00219873
0.00205829
0.00206634
0.0024336
0.00225909
0.00209284
0.00214537
0.00228192
0.00216574
0.00207185
0.0020821
0.0020865
0.00203597
0.00208355
0.00219363
0.00227571
0.00213245
0.00198366
0.00200415
0.00179634
0.00188754
0.00183883
0.00171313
0.0015742
0.00178666
0.00180968
0.00159522
0.00169075
0.00185754
0.00189514
0.00175135
0.00182486
0.00194755
0.00193251
0.0017699
0.00193891
0.00204232
0.00219386
0.00223842
0.00235048
0.00228251
0.00226468
0.00225898
0.00225675
0.00227694
0.00227999
0.00228722
0.00230207
0.0023178
0.00239027
0.00238037
0.00236928
0.00236267
0.00235895
0.00223193
0.00223099
0.00222926
0.00222696
0.00222897
0.00230105
0.0022739
0.00226235
0.00225734
0.00225525
0.00233726
0.00233889
0.0023419
0.00234792
0.00235945
0.00242419
0.00241744
0.00241569
0.0024166
0.00241692
0.00240054
0.00239786
0.00239215
0.00238568
0.00238752
0.00247212
0.00248271
0.00249353
0.00250023
0.0025041
0.00259217
0.00259184
0.00259174
0.00259062
0.00258058
0.00259373
0.00260439
0.0026074
0.00260831
0.00260844
0.00269568
0.00269374
0.00269029
0.00268319
0.00266482
0.00268412
0.00271769
0.00272906
0.00273311
0.00273482
0.00254412
0.00253584
0.00252486
0.00251733
0.00252
0.00253417
0.00256963
0.00258249
0.0025866
0.00258806
0.00246238
0.00246256
0.00245997
0.00245215
0.0024268
0.00256891
0.00262948
0.00264632
0.00264664
0.00264307
0.0022924
0.00227888
0.00226371
0.00225318
0.00224855
0.00227507
0.00229438
0.00231171
0.00230638
0.00228819
0.00226888
0.0022459
0.00218631
0.0022944
0.00232478
0.00233735
0.00235367
0.00236788
0.00251682
0.00251427
0.00250746
0.00249555
0.00246328
0.00251579
0.00260941
0.0026318
0.00264357
0.00265466
0.00240499
0.00238286
0.0023593
0.0023434
0.00223018
0.00225365
0.0022781
0.00230301
0.00233393
0.00230633
0.00227678
0.00224006
0.00231093
0.00233825
0.00236227
0.00238232
0.00274771
0.00274785
0.00274415
0.00271791
0.00261349
0.00223973
0.00214971
0.00224613
0.00236576
0.00250873
0.00229893
0.00215296
0.00228639
0.00220658
0.00216559
0.00214743
0.00221108
0.00221979
0.00210658
0.00225669
0.00253383
0.00229864
0.0021228
0.00209015
0.00216073
0.0018482
0.00187764
0.00182585
0.00172275
0.00157324
0.00177417
0.00177723
0.00164028
0.00180108
0.0018768
0.00196046
0.00194908
0.00205982
0.00211894
0.0021531
0.00220718
0.00225231
0.0022678
0.00223896
0.00216963
0.00206074
0.00189318
0.00179094
0.00181626
0.0018299
0.0018356
0.00183738
0.00213531
0.00213306
0.00213338
0.00214281
0.00215553
0.0021317
0.00213553
0.00214787
0.00215687
0.00216214
0.00234794
0.00234652
0.00234609
0.00234718
0.00233741
0.00236346
0.00241979
0.00242427
0.00242187
0.00242061
0.00235134
0.00234769
0.00234113
0.00232936
0.00229103
0.00248146
0.00249925
0.00250172
0.00250317
0.00250468
0.00261819
0.00261834
0.00261933
0.00261581
0.00257049
0.0024973
0.00253471
0.00254811
0.00255651
0.00256118
0.0026628
0.00265955
0.00265529
0.00264961
0.00262933
0.00259795
0.00262051
0.00263459
0.00264416
0.00264948
0.00283443
0.00283182
0.00283029
0.00282675
0.00279068
0.00283026
0.00284824
0.00285247
0.00285633
0.00285965
0.00276617
0.00275725
0.00274461
0.00273108
0.0027058
0.00274937
0.00279708
0.00280978
0.00281199
0.00281084
0.00252715
0.00251414
0.0024984
0.00249049
0.00251147
0.00266305
0.00268825
0.00269561
0.00270307
0.00270934
0.00279145
0.00279028
0.00278586
0.00276903
0.0027178
0.00292478
0.00294689
0.00295549
0.00296891
0.0029803
0.00286336
0.00285569
0.00284549
0.00283427
0.00280188
0.00255584
0.00262079
0.0026488
0.00267017
0.00268517
0.00267191
0.00266022
0.00264702
0.00262661
0.00254406
0.00235194
0.00221245
0.00225064
0.00227347
0.00229672
0.00232249
0.00244215
0.00242106
0.0023982
0.00238477
0.00242007
0.00244046
0.00246556
0.00248629
0.00242177
0.00239146
0.00236095
0.00232708
0.00226464
0.00238629
0.00236337
0.00225595
0.00216328
0.00227406
0.00234393
0.00218626
0.0022035
0.00233827
0.00215372
0.00206684
0.00219528
0.00237214
0.00235807
0.00215105
0.00211355
0.00230479
0.002352
0.00217895
0.00222358
0.00241297
0.00240518
0.0022251
0.00201629
0.00199926
0.00186101
0.00197387
0.00212357
0.00218556
0.00246465
0.00258738
0.00256063
0.00252499
0.00244777
0.00233824
0.0022095
0.0020632
0.00188966
0.00172088
0.00151506
0.00134345
0.00127995
0.00132437
0.00133252
0.00133066
0.0013274
0.00162176
0.00161996
0.00162096
0.00162732
0.00161491
0.0017732
0.00181261
0.00183028
0.00183694
0.00183853
0.00210644
0.00210297
0.00210119
0.00210341
0.00208653
0.00222947
0.00223461
0.00223385
0.00223549
0.0022372
0.00225322
0.00224794
0.00224155
0.00223645
0.00221441
0.00243022
0.00244001
0.00244245
0.00244713
0.00245134
0.00248979
0.00248311
0.00247478
0.00246632
0.00244367
0.00264444
0.0026616
0.00266991
0.00267787
0.00268371
0.00278009
0.00277466
0.00276471
0.00274828
0.00271199
0.00278954
0.00281448
0.00282649
0.00283515
0.00284064
0.00295173
0.00295001
0.00294609
0.00293232
0.00287379
0.00296505
0.00299984
0.00301436
0.00302236
0.00302785
0.00301728
0.0030117
0.0030024
0.00298542
0.00295026
0.00276748
0.0028032
0.00282321
0.00284111
0.00285437
0.00297953
0.00297414
0.0029681
0.00296122
0.00294077
0.00282679
0.00288658
0.00291165
0.00285999
0.00298655
0.00303484
0.0030425
0.00304461
0.00304748
0.00294195
0.0029342
0.00292151
0.00290471
0.00287991
0.00309996
0.0031327
0.00313858
0.00314491
0.00315128
0.00317303
0.00316793
0.00316166
0.00315155
0.00310676
0.00306412
0.00311295
0.00312576
0.00313589
0.00314388
0.00290943
0.00289506
0.00287647
0.00285844
0.00281865
0.00276665
0.00283767
0.00286028
0.00287113
0.00287749
0.00270463
0.00269916
0.00268988
0.00266557
0.00259178
0.00228211
0.0021833
0.00225028
0.00228654
0.0023171
0.00234762
0.00240057
0.0023823
0.00235785
0.00233396
0.00235449
0.00236781
0.00238771
0.00240369
0.00238945
0.00237369
0.00235535
0.00232943
0.00226954
0.00234449
0.00234531
0.0022537
0.00229797
0.00237905
0.00248006
0.00269026
0.00270882
0.00267315
0.00270966
0.002727
0.00273729
0.00274424
0.00265296
0.00264541
0.00263508
0.00262666
0.00262035
0.00248238
0.0025305
0.00254315
0.00254397
0.0025428
0.00243758
0.00243043
0.00242301
0.00241563
0.00241
0.00226074
0.00212249
0.0021256
0.00213363
0.00214163
0.00215099
0.00227954
0.00227396
0.00226693
0.00226164
0.00231258
0.00231813
0.00232829
0.00233717
0.0022666
0.00225818
0.00224897
0.00223441
0.00220045
0.00229857
0.00224841
0.00217153
0.00213208
0.00223796
0.00229375
0.00214637
0.00211137
0.00223773
0.00226968
0.00211082
0.00216375
0.00233826
0.00196115
0.00201808
0.00201282
0.00201087
0.00222472
0.00216209
0.00213374
0.0022247
0.00223024
0.0021099
0.00211688
0.00219174
0.00210109
0.00205911
0.00177775
0.00141207
0.00139505
0.00177261
0.00180245
0.00148912
0.00204749
0.00198336
0.00178254
0.00160333
0.00138814
0.00172582
0.00168769
0.00126827
0.0010912
0.00165728
0.00165944
0.0012142
0.00118351
0.0016478
0.00168492
0.00130602
0.00128907
0.0016837
0.00169254
0.00128858
0.00154297
0.00180944
0.00185124
0.00153544
0.00152159
0.00182181
0.00175594
0.00139337
0.00133129
0.0017311
0.00182575
0.0015899
0.00154143
0.00182165
0.00190173
0.00162993
0.00156613
0.00170866
0.00167939
0.00177001
0.00170091
0.00169279
0.00169449
0.00169372
0.0017968
0.00179463
0.00179133
0.00179697
0.00184791
0.00236027
0.00224999
0.00221804
0.00219914
0.00218712
0.00184142
0.00183799
0.00183467
0.00184983
0.00195948
0.00226229
0.00223085
0.0022045
0.00218665
0.00217621
0.00201581
0.00200231
0.00198665
0.00198406
0.00204695
0.00189389
0.00176166
0.00166035
0.0017618
0.00169813
0.00168898
0.00168975
0.00168839
0.00192114
0.00192273
0.00192276
0.0019252
0.00197
0.0023106
0.0022369
0.00221027
0.00219923
0.00219396
0.00197595
0.00197257
0.00196905
0.00197991
0.00206221
0.00230481
0.00228889
0.00226941
0.00225691
0.00224967
0.00204433
0.002039
0.0020335
0.0020447
0.00214737
0.00204164
0.00197523
0.0019356
0.00200645
0.00202139
0.00195297
0.00193998
0.00194032
0.00194218
0.00216583
0.00217161
0.00218268
0.00220243
0.0022211
0.00224903
0.00222257
0.00220597
0.00219774
0.00219375
0.00208971
0.00208763
0.00208529
0.00209099
0.00213345
0.00219256
0.00213137
0.00212447
0.00212698
0.00212919
0.00214065
0.0022797
0.00222539
0.0022183
0.0020958
0.00209144
0.00204768
0.002043
0.0020469
0.00205035
0.00225725
0.00225935
0.00226714
0.00228388
0.0023014
0.00231175
0.00229517
0.00228521
0.00228243
0.00228246
0.00212739
0.00212429
0.00211866
0.00211302
0.00212425
0.0021997
0.00217014
0.00215654
0.00215276
0.00215235
0.00185356
0.00185056
0.00184396
0.00183224
0.00181435
0.0017936
0.00180336
0.00179771
0.0017954
0.00179477
0.0016663
0.00166609
0.00166697
0.00167302
0.00167109
0.00146156
0.00148404
0.0014797
0.00147967
0.00148225
0.00142167
0.00143023
0.00144145
0.00144492
0.00140229
0.00109943
0.00107421
0.00106702
0.00106524
0.00106465
0.00105114
0.00105097
0.00105312
0.00105908
0.00107632
0.00125794
0.00126499
0.00127163
0.00126991
0.00126418
0.00151124
0.00150961
0.00150998
0.00151691
0.00152394
0.00174099
0.00173752
0.00173627
0.00173912
0.00174267
0.00201302
0.00201288
0.00200891
0.00199405
0.00194622
0.00228373
0.00232827
0.00232721
0.00231954
0.0023153
0.00227103
0.00227218
0.0022683
0.00225292
0.00221931
0.00252911
0.00255052
0.00254747
0.00254405
0.00254435
0.00284043
0.00283947
0.00283934
0.00283356
0.00278521
0.00273854
0.00277213
0.00278882
0.00279855
0.00280284
0.00288565
0.00287653
0.00286561
0.00285812
0.00285955
0.003003
0.00304363
0.00304886
0.00304981
0.00305146
0.00311704
0.00311243
0.00310734
0.00310207
0.00307235
0.00297603
0.00302475
0.0030421
0.00305411
0.00306248
0.00306738
0.00306084
0.00305114
0.00303569
0.00299114
0.00294988
0.00299441
0.0030118
0.00302366
0.00303199
0.00308476
0.0030812
0.00307687
0.00306819
0.00303555
0.00285578
0.00288588
0.00289542
0.00290136
0.00290487
0.00279725
0.00279401
0.00279056
0.00278798
0.00278441
0.00263566
0.00263784
0.00263883
0.00264129
0.00264327
0.00244547
0.00244475
0.00244469
0.00244719
0.00245732
0.00229603
0.0022731
0.00227413
0.00227811
0.00228131
0.00228108
0.0022835
0.00228712
0.00228813
0.00229271
0.00213562
0.00203928
0.00203281
0.00203311
0.00203422
0.00203512
0.00214734
0.00215121
0.00215452
0.00215017
0.00218154
0.00218543
0.00218761
0.00218929
0.00207615
0.00207001
0.00206453
0.00206267
0.00207309
0.00217911
0.00218381
0.00207785
0.00210588
0.00222986
0.00235225
0.00212699
0.00206191
0.00214797
0.00201523
0.00203437
0.00203164
0.00200284
0.00195051
0.00199137
0.0019885
0.00196206
0.00199894
0.00201543
0.00205356
0.00205509
0.00199113
0.00200679
0.00204471
0.00204613
0.00207283
0.00204017
0.002038
0.0020851
0.00189077
0.00202871
0.00214454
0.00226668
0.00235767
0.00238038
0.0023164
0.00216753
0.00193427
0.00164841
0.00135305
0.00109832
0.000918908
0.000790557
0.000711032
0.000807092
0.000785852
0.000779274
0.000777056
0.000775731
0.000890299
0.000898827
0.000906981
0.000912137
0.000914787
0.00112581
0.001112
0.00109796
0.00108606
0.00107803
0.00112328
0.00113361
0.0011438
0.00114697
0.00114639
0.00129114
0.00124342
0.00123603
0.00123987
0.00124441
0.0015148
0.00152313
0.0015299
0.00152464
0.00151057
0.00172913
0.00173075
0.00173024
0.00173371
0.00173636
0.00201743
0.00201265
0.00200743
0.00200624
0.00201158
0.00211114
0.00213137
0.00212774
0.00212217
0.00211815
0.00216872
0.00217413
0.00217634
0.00216579
0.00213716
0.00232372
0.0023119
0.00231529
0.00232727
0.00233751
0.00263538
0.00263009
0.00262494
0.00261939
0.0026014
0.00268985
0.00271998
0.0027238
0.00272307
0.00272311
0.00271569
0.00271392
0.00270877
0.00269635
0.00267791
0.00280651
0.00281051
0.00281621
0.00282732
0.00283718
0.00298575
0.00297876
0.00296893
0.0029576
0.00293169
0.00295714
0.00298594
0.00299197
0.00299314
0.00299318
0.00299972
0.00299795
0.00299493
0.00299113
0.00297093
0.00284797
0.00284687
0.00285124
0.00285771
0.00286279
0.00290851
0.00290317
0.00289749
0.00289368
0.00288562
0.00287945
0.00288825
0.00288839
0.00288675
0.00288562
0.00273784
0.00273875
0.00273932
0.00273909
0.00274527
0.00258239
0.00257461
0.00257486
0.00257647
0.00257774
0.00244695
0.00244594
0.00244492
0.00244251
0.00243391
0.00219465
0.00219959
0.00220829
0.00221641
0.00222165
0.00225651
0.00225179
0.00224532
0.0022358
0.00221475
0.00226207
0.00225257
0.0022464
0.00224038
0.00223616
0.00208173
0.00209004
0.00209768
0.00209598
0.00200035
0.00200008
0.00200105
0.00200165
0.00199055
0.00199052
0.00198958
0.00198994
0.002041
0.00204193
0.00203459
0.00202657
0.00226314
0.00226761
0.00227455
0.00227777
0.00226621
0.00203235
0.00201005
0.00206691
0.00208206
0.0020246
0.00203472
0.00202584
0.00198723
0.00194211
0.00201843
0.00202141
0.00201955
0.00201416
0.00201025
0.00193508
0.00193418
0.00193157
0.0019299
0.00203844
0.00203732
0.002028
0.00202114
0.00189863
0.00189897
0.00189767
0.0018922
0.00189765
0.00212496
0.00204748
0.00203202
0.00202184
0.00201556
0.00200698
0.00200953
0.00201396
0.00202417
0.00214287
0.00192675
0.00198508
0.00196163
0.00195845
0.00195714
0.00195444
0.00195321
0.00196101
0.00196946
0.00196912
0.00196834
0.00197557
0.00197408
0.00197278
0.00196731
0.00196982
0.00197218
0.00197258
0.00196602
0.00190416
0.00192425
0.00200061
0.00202708
0.00203091
0.00190494
0.00197119
0.00195948
0.00186977
0.00212241
0.00203234
0.00200648
0.0020711
0.0020592
0.00201044
0.00203588
0.00204552
0.00196764
0.00198509
0.0020211
0.00200329
0.00201815
0.00203319
0.00205946
0.00208126
0.0020664
0.00196978
0.00179923
0.0015908
0.00134598
0.00113172
0.000965699
0.00082651
0.000879792
0.000884134
0.000879775
0.000871033
0.000863654
0.000767445
0.000766223
0.000765385
0.000770734
0.000809717
0.00100334
0.00102092
0.00101752
0.00100523
0.000992996
0.00100421
0.00100398
0.00100398
0.00100727
0.00102492
0.00123898
0.00120006
0.00119254
0.00119119
0.00119085
0.00147187
0.00148142
0.00148938
0.00148607
0.00146404
0.00161079
0.00156931
0.00156533
0.00157337
0.00158157
0.00194242
0.00194079
0.00193906
0.0019402
0.00194634
0.00200772
0.00201467
0.0020127
0.00200968
0.00200871
0.00208926
0.00209494
0.00209782
0.00209022
0.00206945
0.00227396
0.002248
0.00224932
0.0022605
0.0022716
0.00255073
0.00254759
0.00254337
0.00254261
0.00255446
0.00253539
0.0025439
0.00254783
0.00254762
0.00254678
0.00253866
0.00253966
0.00253868
0.00253343
0.00253597
0.00272314
0.0027039
0.00270092
0.00270762
0.00271571
0.00282222
0.00281614
0.00281131
0.00281597
0.00283048
0.00290087
0.00288302
0.00287907
0.00288325
0.00288846
0.00275981
0.0027633
0.00276551
0.00276413
0.00276744
0.00272933
0.00272111
0.00272377
0.00272358
0.00272228
0.00263932
0.0026399
0.00264013
0.00264055
0.00265397
0.00252878
0.00252158
0.00252081
0.00252048
0.00252071
0.00240829
0.002409
0.00241068
0.0024123
0.00240748
0.00233733
0.00234142
0.00234002
0.00233778
0.00233661
0.00217467
0.00216994
0.00216221
0.00215248
0.0021439
0.00207599
0.00206564
0.00206827
0.00207331
0.00207693
0.00215398
0.00216184
0.0021737
0.00218543
0.00219308
0.00200328
0.00202244
0.00201912
0.00201088
0.00200291
0.00198427
0.00198597
0.00198614
0.00198535
0.00199819
0.00202632
0.00200585
0.00199947
0.00199498
0.00199219
0.00199024
0.00186962
0.0021172
0.00210765
0.00185151
0.00223921
0.00196073
0.00189543
0.00237538
0.00202316
0.00186394
0.00246681
0.00188046
0.0021957
0.00199829
0.00239994
0.0020599
0.00210905
0.00203128
0.00196981
0.00184815
0.00176668
0.00168484
0.00160968
0.00151565
0.00139575
0.00122369
0.00105948
0.000916853
0.000812177
0.000718915
0.000727505
0.000711669
0.000705818
0.000700759
0.00069661
0.000707011
0.000718311
0.000730038
0.000737992
0.000746513
0.000920804
0.000877581
0.000862252
0.000860177
0.000861834
0.00106126
0.00106569
0.00107425
0.00109243
0.00113512
0.00122921
0.00122359
0.00122161
0.00121143
0.00120031
0.00146874
0.00146286
0.00146074
0.00147796
0.00153801
0.00182191
0.00177775
0.0017631
0.00175997
0.00176008
0.00188427
0.0018926
0.00189927
0.0018986
0.00190671
0.00222173
0.00217684
0.00216703
0.00217389
0.002183
0.0024248
0.0024221
0.00242236
0.00243308
0.00246966
0.00227921
0.00225446
0.00225132
0.00225031
0.00224935
0.0024382
0.00243874
0.00244032
0.00244282
0.00245431
0.00255468
0.00254161
0.00253784
0.00253567
0.00253449
0.00259817
0.00260038
0.00260488
0.00260765
0.00260776
0.00258079
0.0025755
0.00257281
0.0025685
0.00256629
0.00254827
0.00255439
0.00256278
0.0025685
0.00257071
0.00243296
0.00242088
0.00241843
0.00241782
0.00241834
0.00227737
0.00227779
0.00227887
0.00228278
0.00230149
0.00226652
0.00227726
0.00227925
0.00228047
0.00228171
0.00221305
0.00221418
0.00221664
0.00221859
0.00220861
0.00205607
0.00203072
0.00202757
0.00203078
0.00203364
0.00216021
0.00217167
0.00218804
0.00219944
0.00218075
0.0020373
0.00197967
0.00197577
0.00198158
0.00198602
0.00196325
0.00196166
0.00195853
0.00196016
0.00199576
0.00191525
0.00187597
0.00186857
0.00186679
0.00186507
0.00195756
0.00196629
0.00197868
0.00199075
0.00200025
0.00186098
0.00190258
0.00189563
0.00188281
0.00187241
0.00191487
0.00192476
0.00194059
0.00195254
0.00190958
0.00183492
0.00182547
0.0018267
0.00182618
0.00182459
0.00198095
0.00198805
0.00199511
0.00199596
0.00198133
0.00198385
0.00191257
0.00185478
0.00199383
0.00199405
0.00186403
0.00187551
0.00187451
0.00186977
0.0018649
0.00195804
0.00196377
0.00196933
0.00197532
0.00200561
0.00191276
0.00185606
0.00197068
0.00193939
0.0018093
0.00188905
0.00195774
0.00195288
0.00184973
0.00185818
0.00195791
0.00197589
0.00197699
0.00225282
0.00208749
0.00206174
0.00221492
0.0021874
0.00205207
0.00197469
0.00192963
0.00197437
0.00200232
0.00201089
0.00202
0.0020307
0.00203395
0.00202684
0.00202831
0.0018179
0.00192694
0.00192644
0.00176224
0.00190251
0.00197216
0.0020285
0.00202675
0.00202034
0.00202992
0.00194541
0.00198294
0.00196437
0.00197581
0.00191065
0.00178541
0.00174245
0.00188258
0.00179846
0.0014109
0.00118185
0.00169712
0.00166386
0.00109734
0.00114721
0.00168641
0.00174193
0.00138777
0.00112678
0.00163478
0.00168926
0.001147
0.00124151
0.00170648
0.00173477
0.00130143
0.00156943
0.00183357
0.00185888
0.00165753
0.00195751
0.00194527
0.00195702
0.00202571
0.00245635
0.00212207
0.0019365
0.00190437
0.00200128
0.00182335
0.00144489
0.000980129
0.000600321
0.000439754
0.000612549
0.000896984
0.00141812
0.00177254
0.0021306
0.00236636
0.0024093
0.00242873
0.00244174
0.00277707
0.00279093
0.00280514
0.00280605
0.00273218
0.00211041
0.00223687
0.00225415
0.00225264
0.00224661
0.00284602
0.0028688
0.00289601
0.00289802
0.00279681
0.00212928
0.00216112
0.00216545
0.00216717
0.00216611
0.00288912
0.00291521
0.00295137
0.00297426
0.00287597
0.00278065
0.00298043
0.00300621
0.0029978
0.00298634
0.0021819
0.0021852
0.00218329
0.00216426
0.00205498
0.00165823
0.00181979
0.00183143
0.00183132
0.00183037
0.00234885
0.00236009
0.00237236
0.00237909
0.00238803
0.00176447
0.00176668
0.00176984
0.00177144
0.00176851
0.00166916
0.00167043
0.00167167
0.00167269
0.00163978
0.00229229
0.00221008
0.00218102
0.00216343
0.00215097
0.00211325
0.00213002
0.00215714
0.00219269
0.00220125
0.00219305
0.00208844
0.00206186
0.00205063
0.0020438
0.00205351
0.00206396
0.00208279
0.0021138
0.00216726
0.00201691
0.00192604
0.00191262
0.00191683
0.00192159
0.00176917
0.00171437
0.00170647
0.00170659
0.00170516
0.00186553
0.00186436
0.00186144
0.00186373
0.00190255
0.00218848
0.00215441
0.00212996
0.00211537
0.00210794
0.00207361
0.00207525
0.00208106
0.00210451
0.00220003
0.00206181
0.00204888
0.0020493
0.0020505
0.00205082
0.00208512
0.00208388
0.0020805
0.00207798
0.00209476
0.00208633
0.00199583
0.00199255
0.0018737
0.0018583
0.00183646
0.00183841
0.00184317
0.00184608
0.0020973
0.00210167
0.0021102
0.00212838
0.00215237
0.00221493
0.00218366
0.00216502
0.00215701
0.00215394
0.00188965
0.0018877
0.00188363
0.00187642
0.00186624
0.0018982
0.00189077
0.00188157
0.00187649
0.00187377
0.00179244
0.00179587
0.0018049
0.00182151
0.00181809
0.00160999
0.00163238
0.00162482
0.00162116
0.00162148
0.00128521
0.00128443
0.00127836
0.0012614
0.00122053
0.00115053
0.0011864
0.00120045
0.00120582
0.00120611
0.0010666
0.0010691
0.0010744
0.00108237
0.00107396
0.000986216
0.000990842
0.000984789
0.000980246
0.000978045
0.000911346
0.00092061
0.000933107
0.000945273
0.000951724
0.000785818
0.000796847
0.000799469
0.000797307
0.000793317
0.000720288
0.000721268
0.000722983
0.000726327
0.000730077
0.000726869
0.000707393
0.000699506
0.000695547
0.00069334
0.000714381
0.000716804
0.000721609
0.000730156
0.000746142
0.000812492
0.000816004
0.000811269
0.000801987
0.00079336
0.000795242
0.000797584
0.000801049
0.00080837
0.000830929
0.000980865
0.000945689
0.000937072
0.000935934
0.00093554
0.000898576
0.000786843
0.000874542
0.000846189
0.000834328
0.000828743
0.000826098
0.00078297
0.000731042
0.000744368
0.000757491
0.000757645
0.00075314
0.000748493
0.000689606
0.000689191
0.000689319
0.000693901
0.000721689
0.000755086
0.000721383
0.000713704
0.000712269
0.000712375
0.000747621
0.000746704
0.000745805
0.000747623
0.000768977
0.00072565
0.000710549
0.000709443
0.000711228
0.000712471
0.000758372
0.000758677
0.000760617
0.000768926
0.000795957
0.000960061
0.000967171
0.000961422
0.000948703
0.000937306
0.000950254
0.000945379
0.00094096
0.000945525
0.000982328
0.00121806
0.00119174
0.00118198
0.0011785
0.00117717
0.0014304
0.00143994
0.00144822
0.00144327
0.00141363
0.00157272
0.00152652