/*--------------------------------*- C++ -*----------------------------------*\
  =========                 |
  \\      /  F ield         | OpenFOAM: The Open Source CFD Toolbox
   \\    /   O peration     | Website:  https://openfoam.org
    \\  /    A nd           | Version:  7
     \\/     M anipulation  |
\*---------------------------------------------------------------------------*/
FoamFile
{
    version     2.0;
    format      ascii;
    class       volVectorField;
    location    "1.75";
    object      wallShearStress;
}
// * * * * * * * * * * * * * * * * * * * * * * * * * * * * * * * * * * * * * //

dimensions      [0 2 -2 0 0 0 0];

internalField   uniform (0 0 0);

boundaryField
{
    outlet1
    {
        type            calculated;
        value           uniform (0 0 0);
    }
    Wall
    {
        type            calculated;
        value           nonuniform List<vector> 
40276
(
(0.000150107 5.95115e-05 0.00023966)
(-0.000184499 -4.65606e-06 0.000415485)
(-0.000187591 -4.35287e-06 0.000406536)
(0.000229593 -0.000234156 0.000183058)
(0.000177834 -0.00016635 0.00016632)
(0.000129738 -0.000124276 0.000172693)
(0.000106964 -7.63909e-05 0.000174157)
(0.00012326 -5.12275e-05 0.000191161)
(0.00010066 -2.94216e-05 0.000182807)
(0.000101238 -4.59543e-05 0.0001895)
(0.000513278 4.28359e-05 0.000477497)
(0.000602725 9.81236e-06 0.000520179)
(0.000575855 1.92792e-05 0.000923466)
(0.000553776 2.55132e-05 0.000855669)
(0.000206362 3.1733e-05 0.000244634)
(0.000200159 4.50849e-05 0.00027681)
(0.000174698 5.63018e-05 0.000198999)
(0.000187413 4.1127e-05 0.000141508)
(3.82122e-05 -0.000182727 6.86321e-05)
(5.45723e-05 -0.000235967 9.70309e-05)
(-7.94316e-05 2.10428e-05 0.000186377)
(-0.000104818 2.47473e-05 0.000177498)
(-9.03063e-05 2.48821e-05 6.2313e-05)
(-0.000106172 2.32361e-05 5.92107e-05)
(-8.26821e-05 1.97318e-05 4.0724e-05)
(-9.40404e-05 2.08119e-05 3.56468e-05)
(-5.58588e-05 3.07486e-05 -6.13455e-06)
(-5.99763e-05 3.03361e-05 -5.00601e-06)
(-0.000194101 6.18974e-05 6.57484e-05)
(-0.000150189 4.53969e-05 5.52192e-05)
(-0.000223129 7.29657e-05 0.000149285)
(-0.000268409 9.31695e-05 0.000160012)
(-5.27953e-05 -3.07031e-06 0.000160346)
(-4.70256e-05 -4.76908e-06 0.000149073)
(-3.16709e-05 8.7746e-06 4.07301e-06)
(-3.17675e-05 9.65115e-06 4.03381e-06)
(0.000559149 3.81889e-05 6.36176e-05)
(0.000583629 7.89272e-06 4.40804e-05)
(0.00119817 0.000272967 0.000111601)
(0.00144299 0.000392366 0.000118508)
(0.000906434 2.90659e-05 -6.41356e-06)
(0.000804431 -2.31338e-06 1.53571e-05)
(0.000107368 -2.26777e-05 -0.000619795)
(0.000126033 -2.26237e-05 -0.000615145)
(0.000102357 3.25264e-06 -0.00060144)
(7.74283e-05 -1.25633e-05 -0.000552553)
(3.43859e-05 5.56422e-06 -0.000559334)
(3.43042e-05 -6.5121e-06 -0.000493309)
(-5.32517e-06 -9.08744e-07 -0.000461037)
(-2.63686e-05 3.43796e-06 -0.000417887)
(-2.69003e-05 -6.68148e-06 -0.000378758)
(-5.26857e-05 4.82111e-06 -0.000392906)
(-5.84711e-05 -3.66987e-06 -0.000345649)
(-7.05694e-05 7.4322e-06 -0.000347114)
(0.000503483 7.58818e-05 0.000222733)
(0.000498388 8.72353e-05 0.000172898)
(-0.00016376 6.44236e-05 0.00026236)
(6.16823e-05 2.16446e-05 0.000183695)
(-0.000180599 6.59282e-05 0.000267206)
(-0.000605047 9.36669e-05 -0.000574763)
(-0.000649696 5.90833e-05 -0.000598607)
(1.83523e-05 3.35594e-05 0.00028109)
(-1.24033e-05 -1.13145e-05 0.000217886)
(2.06711e-05 -5.46664e-07 1.50381e-05)
(1.93315e-05 -4.45173e-07 1.56182e-05)
(2.0145e-05 -1.60475e-07 1.45511e-05)
(1.94233e-05 -3.91018e-07 1.34965e-05)
(2.03536e-05 -4.05473e-07 1.49002e-05)
(-0.000147065 -4.11972e-07 -0.000134975)
(-0.000160944 1.57135e-05 -0.000145642)
(-8.40307e-05 1.09292e-05 -0.000318325)
(-7.16505e-05 -3.5696e-06 -0.000325868)
(-7.99486e-05 5.99896e-06 -7.9506e-05)
(-8.13056e-05 6.09287e-06 -7.56741e-05)
(-7.13315e-05 5.35799e-06 -6.89768e-05)
(-7.1866e-05 7.7717e-06 -6.76607e-05)
(-7.97907e-05 3.8132e-06 -7.23179e-05)
(1.8477e-05 -7.5073e-07 -1.16696e-05)
(1.54633e-05 -9.50303e-07 -1.65618e-05)
(6.41712e-06 2.32333e-06 -7.48433e-07)
(7.58498e-06 3.23579e-07 -4.96429e-07)
(1.02112e-05 3.02711e-07 -7.12928e-07)
(2.32695e-05 -1.40691e-05 1.60604e-05)
(2.22238e-05 -1.61218e-05 1.66344e-05)
(1.69949e-05 -4.13512e-05 1.0529e-05)
(1.80312e-05 -5.00144e-08 1.43086e-05)
(1.73833e-05 -2.90904e-07 1.30095e-05)
(1.54987e-05 -2.10686e-07 1.40476e-05)
(1.46474e-05 -4.31575e-05 9.55778e-06)
(-1.06749e-06 -5.3183e-05 1.80953e-06)
(-2.56006e-06 -5.15418e-05 1.32227e-06)
(-3.54092e-05 -9.07689e-07 -3.2426e-05)
(1.51998e-05 -1.26984e-07 1.27632e-05)
(1.28031e-05 -2.49148e-07 1.3847e-05)
(1.28348e-05 -1.04619e-07 1.2663e-05)
(1.01734e-05 2.97825e-08 1.22827e-05)
(7.57396e-06 -3.3523e-08 1.1969e-05)
(5.14851e-06 -8.73853e-08 1.18697e-05)
(6.75157e-07 2.72436e-07 1.01737e-05)
(-1.45436e-06 1.59618e-07 9.90526e-06)
(-3.50021e-06 -1.81305e-08 9.67333e-06)
(-9.98377e-06 4.01451e-07 6.13509e-06)
(-1.12382e-05 1.89533e-07 5.2361e-06)
(-3.85715e-05 5.05497e-06 -3.41988e-05)
(-1.23854e-05 8.95722e-08 4.22626e-06)
(-2.02571e-06 -2.6457e-06 -2.56895e-06)
(-1.06102e-06 -4.3509e-06 -1.36661e-06)
(-1.30159e-05 -1.37229e-07 3.09129e-06)
(-1.34565e-05 -2.93608e-07 1.76706e-06)
(-1.22367e-05 4.57949e-07 7.70987e-07)
(-1.34121e-05 -4.48669e-07 3.57803e-07)
(-1.18944e-05 3.35109e-07 -6.71555e-07)
(-1.2677e-05 -6.06158e-07 -1.14282e-06)
(-1.13856e-05 2.28996e-07 -1.89407e-06)
(-1.09112e-05 -4.31599e-07 -2.5826e-06)
(-8.90066e-06 -1.57416e-06 -1.79415e-05)
(-8.24408e-06 -1.67536e-06 -1.8475e-05)
(-7.8337e-06 -1.95463e-06 -1.6928e-05)
(-0.000230241 -5.99776e-05 0.000465295)
(-0.00022909 -5.76069e-05 0.000421711)
(-1.70774e-05 -3.55236e-06 2.10214e-05)
(-2.92501e-05 -4.2674e-06 2.75003e-05)
(4.25466e-06 -1.3826e-06 1.20196e-05)
(8.11235e-06 -8.35483e-07 7.39136e-06)
(-1.99844e-06 -1.82555e-05 -3.03439e-06)
(9.2217e-07 -1.30254e-05 1.18028e-07)
(-0.000127592 3.61415e-05 0.000184124)
(-0.00011003 4.6532e-05 0.000155602)
(-0.000161819 -1.05389e-05 0.000277126)
(-0.000141619 -1.6456e-05 0.000238975)
(-0.00010681 -6.91282e-07 0.00017937)
(-9.33498e-05 -3.73393e-06 0.000154272)
(-0.000165509 7.68999e-05 0.000496761)
(-0.000231249 0.000137738 0.000700712)
(2.32524e-05 -1.7339e-05 0.000189214)
(1.67638e-05 -1.10467e-05 0.000158781)
(-9.47911e-05 2.52989e-05 0.000194)
(-4.91417e-05 -5.14026e-07 0.000169265)
(-0.000193427 -3.71066e-05 0.000516069)
(-0.000195189 -1.86599e-05 0.000513048)
(-0.000193417 -3.17237e-05 0.000541374)
(-0.000212658 -7.49848e-06 0.000545251)
(-0.000559977 8.05398e-06 -0.000151044)
(-0.000641504 7.95073e-06 -0.000183127)
(-2.27702e-05 -7.9672e-05 9.96369e-06)
(-2.65644e-05 -7.89355e-05 1.19306e-05)
(-2.1763e-05 -4.38501e-05 6.54357e-05)
(-2.54948e-05 -5.36273e-05 8.17643e-05)
(-2.92304e-05 -5.25211e-05 6.60439e-05)
(-2.3417e-05 -4.04325e-05 5.37118e-05)
(-1.54784e-05 -8.61514e-05 8.48828e-06)
(-1.99054e-05 -9.83595e-05 6.53343e-06)
(-2.35388e-05 -8.34869e-05 8.82172e-06)
(-2.19208e-05 -8.64954e-05 9.21486e-06)
(-2.31368e-05 -0.000128638 -1.56102e-05)
(-1.99752e-05 -0.000111411 -1.41257e-05)
(-7.64703e-06 -5.66216e-05 -3.31675e-06)
(-9.88284e-06 -5.0537e-05 -4.75775e-06)
(-6.08163e-05 -3.05673e-05 9.43018e-05)
(-5.56049e-05 -3.23877e-05 8.90995e-05)
(6.46615e-05 5.4933e-06 -0.000243481)
(6.33983e-05 -2.17894e-06 -0.000230091)
(-0.000137126 -5.75004e-05 -1.24298e-05)
(-0.000136252 -6.42806e-05 -1.46184e-05)
(-0.000332194 -5.16241e-05 0.00012282)
(-0.00035462 -5.64538e-05 0.000110952)
(-0.00028739 -6.92968e-05 -2.56828e-05)
(-0.000280324 -5.75329e-05 -3.46364e-05)
(-0.000155837 0.000182318 0.000211841)
(-0.000148792 0.000228379 0.00019502)
(-0.000239814 -4.51607e-05 1.2684e-05)
(-0.000126162 -4.60143e-05 -1.78175e-05)
(-0.000201722 -7.904e-05 7.30775e-05)
(-0.000174297 -7.74872e-05 6.19617e-05)
(-0.000219429 -5.27799e-05 5.67587e-05)
(-6.51539e-05 -4.14386e-05 -6.89346e-06)
(-3.91842e-05 -2.09024e-05 6.06283e-05)
(-3.22929e-05 -1.93788e-05 5.59778e-05)
(0.000765063 -0.000354836 0.000458183)
(0.000661544 -0.000293726 0.000350944)
(0.000700736 -0.000449593 0.000210955)
(0.000586707 -0.000303548 0.000226013)
(0.000616153 -0.000378328 0.000193192)
(0.000425603 -0.000382089 0.000173103)
(0.000534046 -0.000419919 0.000210854)
(0.000420924 -0.000355132 0.00016934)
(0.000633755 -0.000351327 0.000391834)
(0.000688186 -0.000426685 0.000392829)
(0.00064957 -0.000396624 0.000303128)
(0.000562881 -0.000454842 0.0001688)
(0.000651985 -0.000467657 0.000157718)
(0.000539254 -0.000389854 0.000194709)
(0.000291461 -0.000276287 0.000164072)
(0.000411592 -0.000381876 0.000181911)
(0.000330646 -0.000295225 0.000179963)
(0.000281105 -0.000274686 0.000181191)
(0.000141054 -0.000119936 0.000174181)
(3.68578e-05 9.05819e-06 0.000327571)
(3.28011e-05 1.68245e-05 0.000292738)
(5.54129e-05 3.31383e-05 0.000246486)
(5.2514e-05 3.36962e-05 0.000218888)
(9.16427e-05 4.30373e-05 0.00022513)
(2.22045e-05 1.93983e-05 0.000251999)
(3.16533e-05 2.86715e-05 0.000234423)
(0.000169167 1.19323e-05 0.000304735)
(0.000189088 2.62616e-05 0.000336745)
(0.000120219 -8.2781e-06 0.000204572)
(0.000141028 -1.92447e-05 0.000245525)
(0.000122004 -3.20064e-05 0.000210371)
(0.000106747 -1.99245e-05 0.000188843)
(0.00014186 -1.37785e-05 0.00025946)
(0.000139454 1.31382e-06 0.00027637)
(0.000118483 -1.27446e-05 0.000248394)
(0.000110046 -2.72681e-05 0.000224844)
(9.80818e-05 -1.14234e-05 0.000183684)
(9.48063e-05 -8.78537e-06 0.000169782)
(8.71212e-05 -2.63949e-05 0.000159714)
(0.000124225 -4.40386e-06 0.000224997)
(8.45677e-05 -1.44522e-05 0.000171092)
(6.96515e-05 -2.88734e-05 0.000158216)
(0.00014127 -9.44767e-06 0.000408294)
(0.000127612 -1.00176e-05 0.000402077)
(9.18513e-05 -1.72194e-05 0.000397697)
(3.79507e-05 -2.08736e-05 0.00037552)
(0.00015821 -7.17213e-06 0.000376645)
(0.000100933 -3.39809e-05 0.000337789)
(6.05811e-05 -3.14852e-05 0.000300552)
(2.2325e-05 -3.47903e-05 0.000264976)
(2.70205e-05 -5.33849e-05 0.000260372)
(-1.05514e-05 -2.40043e-05 0.000274568)
(-3.70699e-05 -4.72467e-05 0.000243631)
(-8.77253e-06 -4.5566e-06 0.000218564)
(-1.88903e-06 7.68567e-06 0.000190658)
(-3.86335e-05 -2.75085e-05 0.000176968)
(-2.71436e-05 -9.13361e-06 0.00016044)
(0.000114012 -1.44021e-05 0.000249828)
(0.000110093 -1.15894e-05 0.000253141)
(8.03609e-05 -3.47485e-05 0.000229473)
(2.70979e-05 -6.32805e-05 0.000252878)
(7.76637e-05 -2.66932e-05 0.000194167)
(1.58995e-05 -5.24116e-05 0.000160126)
(3.14804e-06 -4.94039e-05 0.000197476)
(-3.78209e-05 -5.33518e-05 0.000176968)
(-2.3759e-05 -6.23392e-05 0.00013977)
(-4.30201e-05 -5.20227e-05 9.85078e-05)
(-4.26939e-05 -6.16267e-05 8.91668e-05)
(-8.79273e-05 -6.84856e-05 7.52265e-05)
(-6.06419e-05 -4.44569e-05 0.000124362)
(-4.68809e-05 -2.32329e-05 9.96091e-05)
(-4.49431e-05 -3.65521e-05 8.88252e-05)
(0.000293122 1.62544e-05 0.00051113)
(0.000334208 4.35826e-05 0.00060621)
(0.000291958 -9.90642e-06 0.000518143)
(0.000293114 2.10062e-05 0.000515693)
(0.000491715 0.000141208 0.000490596)
(0.000544924 0.000150236 0.000604141)
(0.000400057 0.000141233 0.000509283)
(0.000441652 0.000133546 0.000596202)
(0.000358613 0.000129338 0.000546324)
(0.000353454 0.000114821 0.000578619)
(0.000497424 0.000200771 0.000648216)
(0.000418867 0.000173787 0.000471733)
(0.000492182 0.000186786 0.000606615)
(0.000317376 0.000124644 0.000503669)
(0.000425908 0.000158752 0.000634463)
(0.000551891 0.00018214 0.000473471)
(0.000451682 0.000174316 0.000527155)
(0.000461427 0.000176232 0.000541213)
(0.000478567 0.000158512 0.000660628)
(0.000521035 0.000210482 0.000605035)
(0.000565978 0.000229757 0.000569232)
(0.000512887 0.000214975 0.000519525)
(0.000507088 0.000180975 0.000631231)
(0.000496602 0.00018214 0.000653332)
(0.000556763 9.65969e-05 0.000587283)
(0.000697529 9.90599e-05 0.000620258)
(0.000543167 0.000124494 0.000590903)
(0.000410276 0.000126461 0.000430602)
(0.000513721 0.000120052 0.000541898)
(0.00053072 8.67581e-05 0.000471519)
(0.000392895 6.23886e-05 0.000329871)
(0.000420359 0.000122899 0.000389743)
(0.000480714 0.000104479 0.000389423)
(0.000448857 0.000107478 0.00035857)
(0.000643387 -5.53541e-05 0.000540014)
(0.000665419 -8.62017e-05 0.000520643)
(0.000697791 -0.000220739 0.000463214)
(0.000511108 -9.6917e-05 0.000395734)
(0.000607753 -0.000183091 0.000318634)
(0.000479362 -3.06673e-05 0.000349801)
(0.000647905 -0.000200893 0.000318638)
(0.000401317 -4.91133e-05 0.000255524)
(0.000535411 -0.000152342 0.000213604)
(0.00069852 -0.000327532 0.000204858)
(0.000401132 5.31055e-05 0.000341727)
(0.000407188 8.68885e-05 0.000336094)
(0.000422946 2.66584e-06 0.000244379)
(0.000414398 5.177e-05 0.000247428)
(0.000524645 0.000190572 0.000421696)
(0.000511092 0.000184855 0.000549296)
(0.000535192 0.000189397 0.000500755)
(0.000552121 0.000159162 0.000384094)
(0.00061929 0.000207151 0.000416061)
(0.000592462 0.000239449 0.000553038)
(0.000492533 0.000182962 0.00055107)
(0.000537852 0.000187956 0.000587862)
(0.000561338 0.000217901 0.000371452)
(0.000532054 0.000194199 0.000532504)
(0.000532658 0.00020069 0.000547205)
(0.000617941 0.000237754 0.000653919)
(0.000623125 0.000238416 0.000505079)
(0.000473123 0.000128861 0.000328736)
(0.000668403 0.000206905 0.00036143)
(0.000506795 0.000102666 0.000301854)
(0.000668031 0.000161743 0.000294922)
(0.000602452 0.00022023 0.000369472)
(0.000601835 0.000195212 0.000440829)
(0.000808596 0.000322617 0.000468644)
(0.000635359 0.000220284 0.000322221)
(0.000601528 0.000181352 0.000340836)
(0.000858263 0.000317856 0.000369522)
(0.00062851 0.000293273 0.000437558)
(0.000667479 0.000246469 0.000569952)
(0.000613907 0.000217883 0.000608901)
(0.000733882 0.000278383 0.00053136)
(0.000749897 0.000285871 0.000497825)
(0.00038361 0.000141702 0.000533805)
(0.000391863 0.000144772 0.000544308)
(0.000267579 6.91687e-05 0.00051467)
(0.000398214 0.000141418 0.000603268)
(0.000463818 0.000124009 0.000712182)
(0.000435324 0.000120791 0.000665548)
(0.000391955 0.000130004 0.000542988)
(0.000419299 0.000143857 0.000577958)
(0.000410743 0.00013947 0.000636933)
(0.000373805 4.45016e-05 0.000688688)
(0.000324297 1.97545e-05 0.00063045)
(0.000387566 8.98346e-05 0.000678021)
(0.000352716 7.71338e-05 0.000620738)
(0.000314323 1.39623e-05 0.000537382)
(0.000430943 0.000145841 0.0005818)
(0.000462521 0.000114546 0.000673885)
(0.000399865 9.45798e-05 0.000627752)
(0.00039065 -3.45472e-05 0.000663641)
(0.00049278 0.000130176 0.000771556)
(0.000373491 4.36402e-05 0.000673104)
(0.000483257 0.000186714 0.000570288)
(0.000540454 0.000204695 0.000627956)
(0.000484557 0.000140868 0.000706997)
(0.00043792 0.000155471 0.000594581)
(0.00051538 0.000191691 0.000613239)
(0.000523437 0.000108471 0.000760766)
(0.000518039 0.000119032 0.000818752)
(0.000411175 1.41113e-05 0.000726283)
(0.0003716 1.28622e-05 0.000630067)
(0.000402043 3.77496e-05 0.00067734)
(0.000464744 9.77394e-05 0.000713076)
(0.000388918 4.15656e-05 0.00063058)
(0.000510837 0.00019024 0.000639542)
(0.000522967 7.75398e-05 0.000795888)
(0.000590797 0.000160121 0.000872227)
(0.000275633 -8.36101e-06 0.000488018)
(0.00029037 3.07718e-05 0.000511866)
(0.000348202 0.000112409 0.000550163)
(0.000362681 6.54752e-05 0.000615211)
(0.000335673 6.91878e-06 0.000558684)
(0.000433792 6.7106e-05 0.00069943)
(0.000324417 -3.37222e-05 0.000549959)
(0.000330963 7.28927e-06 0.000557611)
(0.000417386 0.00011675 0.000658496)
(0.00033689 3.18627e-05 0.000570834)
(0.000288355 2.1829e-05 0.000482095)
(0.000347944 -9.88494e-06 0.000571329)
(0.000296119 2.77177e-05 0.000493533)
(0.000336192 2.91755e-05 0.000551809)
(0.00040597 1.71387e-05 0.00066147)
(0.00031186 7.27285e-05 0.000533257)
(0.000306327 3.90997e-05 0.000509398)
(0.000391326 -7.03107e-05 0.000594899)
(0.000473834 9.77782e-05 0.000757355)
(0.000408847 -5.37061e-05 0.000701885)
(0.00051582 3.84024e-05 0.000846678)
(0.000393205 -1.9011e-05 0.000667955)
(0.000413024 -7.97659e-06 0.000699503)
(0.000528565 0.000129049 0.000778478)
(0.000417485 2.40485e-05 0.000671091)
(0.000476751 2.90123e-06 0.000764128)
(0.000504987 2.21454e-05 0.000825548)
(0.000502177 2.97432e-06 0.00080087)
(0.000408431 1.346e-05 0.000651863)
(0.00045917 1.58413e-05 0.000727784)
(0.000405198 6.18687e-06 0.000638954)
(0.000458922 2.91787e-05 0.000721447)
(0.00056528 0.000177337 0.000722724)
(0.000577727 0.000214361 0.000649879)
(-2.11161e-05 -4.93318e-05 0.000161114)
(0.000569695 0.000141987 0.000805626)
(0.00050192 0.00013434 0.000698707)
(0.000679226 0.000270551 0.00066679)
(0.000594047 0.000238385 0.000604169)
(0.000642327 0.000234095 0.000692615)
(-2.5397e-05 -4.89917e-05 0.00016057)
(0.000574355 0.000184643 0.000747978)
(0.000561601 0.000203136 0.000666153)
(0.000619959 0.000230645 0.000708151)
(0.00056962 0.000162949 0.000801901)
(0.00062216 0.000156544 0.000933248)
(-2.30141e-05 -4.87553e-05 0.000157743)
(0.000463638 4.73519e-05 0.000757757)
(0.000427216 3.35842e-05 0.000720554)
(0.000456274 5.73309e-05 0.000728132)
(0.000530407 3.33451e-05 0.000819057)
(0.000453707 8.4432e-05 0.000710831)
(-2.54977e-05 -3.82115e-05 0.000160776)
(0.000573149 0.000220499 0.000685555)
(0.000601659 0.000106221 0.000865992)
(0.0006781 0.000198922 0.000938604)
(0.000671746 0.0002384 0.000756093)
(0.000777654 0.000298151 0.000627002)
(0.000864055 0.000353683 0.00058746)
(0.000646319 0.00019593 0.000825938)
(0.000621383 0.000197024 0.000732821)
(0.000665161 0.000297532 0.000581118)
(0.00070459 0.000274537 0.00063759)
(0.000679232 0.000238832 0.000738541)
(0.000708608 0.000255198 0.000787636)
(0.000773678 0.000317221 0.000770011)
(0.000675172 0.000224605 0.000832121)
(0.0006777 0.000164722 0.000937687)
(0.00055885 0.000137507 0.000781998)
(0.000620199 0.000127961 0.00097132)
(0.000500661 8.29596e-05 0.000761948)
(0.000589424 7.58992e-05 0.000896502)
(0.00072891 0.000250561 0.000912963)
(0.000612951 0.000203423 0.000769846)
(0.000659043 0.000184188 0.000925175)
(0.00053807 9.16643e-05 0.000866012)
(0.000554057 0.000141938 0.00079519)
(0.000737374 0.000132654 0.00103416)
(0.000639098 0.000117886 0.00100345)
(0.000587645 3.80938e-05 0.000947922)
(0.000575065 1.14411e-05 0.000912012)
(0.000470205 6.47437e-06 0.000788665)
(0.000456827 2.97369e-05 0.000741101)
(0.000603048 9.85913e-05 0.000880574)
(0.000616126 0.000109789 0.000964226)
(0.000574632 6.27034e-06 0.000904125)
(0.000590891 2.84909e-05 0.0009281)
(0.000591746 -3.64471e-05 0.000917567)
(0.000566664 3.85394e-05 0.000866272)
(0.000668766 0.000124595 0.000974957)
(-3.15038e-05 -4.33356e-05 0.000169226)
(0.000499095 -1.08453e-05 0.000816359)
(0.000452376 3.28754e-05 0.000722235)
(0.000657764 0.000150599 0.000968819)
(0.000688064 0.000198768 0.00102663)
(0.000569545 4.7179e-06 0.000948361)
(0.000719577 7.21388e-05 0.00113352)
(0.000527424 4.24238e-05 0.0008265)
(0.00064867 2.99007e-05 0.000995444)
(0.000519105 7.56573e-05 0.0008217)
(0.000498181 1.8042e-06 0.000761087)
(0.000628079 -7.63916e-05 0.000932337)
(0.000703633 4.70966e-05 0.00111248)
(0.000699693 3.19656e-05 0.00109905)
(0.000288438 -3.89643e-05 0.000417301)
(0.000215524 2.02987e-05 0.000336728)
(0.000225449 2.01459e-05 0.000335765)
(0.00021311 1.13928e-05 0.00032959)
(0.000160011 3.24801e-05 0.000287983)
(0.000190205 3.76007e-05 0.000319418)
(0.000232611 2.19637e-05 0.000330364)
(0.000183036 4.83804e-05 0.000315392)
(0.000296626 3.43266e-05 0.00052375)
(0.000286386 4.76496e-05 0.000481601)
(-2.32187e-05 -4.19497e-05 0.000154242)
(-2.69058e-05 -4.39861e-05 0.000161181)
(-2.48865e-05 -4.06257e-05 0.000149244)
(-2.63769e-05 -3.69243e-05 0.000150117)
(0.00029855 4.12591e-05 0.000482588)
(0.000260765 7.30269e-05 0.000434203)
(0.000292815 3.13932e-05 0.000419461)
(0.000244083 5.11884e-05 0.00037216)
(0.000291889 2.16294e-05 0.000412381)
(0.000268389 4.74353e-05 0.00039242)
(-2.98446e-05 -3.63257e-05 0.000155577)
(0.000287259 2.39548e-05 0.00039833)
(-3.51937e-05 -2.89661e-05 0.0001657)
(-3.02528e-05 -3.46824e-05 0.000156616)
(0.000171882 5.67973e-05 0.000254627)
(0.00015295 5.37378e-05 0.000230358)
(0.000153614 4.65264e-05 0.00023604)
(-3.36072e-05 -3.45184e-05 0.000154637)
(-2.66721e-05 -3.85092e-05 0.000165575)
(-2.60525e-05 -4.20489e-05 0.000162058)
(-3.24837e-05 -3.38644e-05 0.000176)
(-3.40525e-05 -4.2493e-05 0.000183724)
(-2.9865e-05 -3.04019e-05 0.00016758)
(-2.87009e-05 -2.62908e-05 0.000160275)
(-3.48304e-05 -3.45969e-05 0.000159827)
(8.14842e-05 4.65219e-05 0.000209797)
(0.000122298 5.25482e-05 0.000234067)
(9.67661e-05 4.54259e-05 0.000200002)
(5.82421e-05 3.64924e-05 0.000209426)
(9.44907e-05 4.66334e-05 0.000211705)
(0.000144143 4.78889e-05 0.000219607)
(0.000164667 5.6658e-05 0.000254234)
(0.000205189 4.63387e-05 0.000246545)
(0.000185434 4.99803e-05 0.000233745)
(0.000169493 6.07596e-05 0.000251513)
(0.000136041 5.64868e-05 0.000213668)
(0.000165539 5.35863e-05 0.000221065)
(0.000207002 4.01613e-05 0.000276102)
(0.000192814 4.31872e-05 0.000278541)
(0.000243096 2.84557e-05 0.000315081)
(0.00019076 3.99227e-05 0.000292921)
(0.000214311 2.49201e-05 0.000294452)
(0.000183366 3.96566e-05 0.000283929)
(0.000246459 6.18353e-05 0.000337627)
(0.000253884 3.68399e-05 0.000300453)
(0.000219276 4.38195e-05 0.000283634)
(0.000199646 4.27563e-05 0.000274118)
(0.000257408 3.15671e-05 0.000359872)
(0.000246528 3.35021e-05 0.000312626)
(0.000274813 5.04305e-05 0.000382935)
(0.000215142 6.77028e-05 0.00030083)
(0.000268334 3.62631e-05 0.000327328)
(0.000246523 3.49549e-05 0.000279607)
(0.000273447 4.00754e-05 0.00032193)
(0.000247582 5.43647e-05 0.000319281)
(0.000260852 5.47158e-05 0.000368275)
(0.000299517 2.71736e-05 0.000395615)
(0.00030489 1.19505e-05 0.000375401)
(0.000318068 4.4519e-05 0.000428782)
(0.000338761 4.85214e-05 0.000431033)
(0.000327217 1.92646e-05 0.000369193)
(0.000300072 1.7873e-05 0.000300492)
(0.000318573 3.66542e-05 0.000362033)
(0.000238834 4.33055e-05 0.000269038)
(0.000209572 3.75643e-05 0.000229536)
(0.000250268 4.92276e-05 0.000272579)
(2.98314e-05 2.35915e-05 0.000171705)
(6.35912e-05 3.7234e-05 0.000176966)
(8.34882e-06 8.95471e-06 0.000133639)
(5.991e-05 2.87793e-05 0.000141843)
(0.000106473 4.32923e-05 0.000181753)
(0.0001665 4.50576e-05 0.00020231)
(0.000112606 4.50782e-05 0.000171495)
(-3.2239e-05 -1.10373e-05 7.93813e-05)
(5.77468e-05 2.11847e-05 8.54601e-05)
(-6.76321e-05 -4.34492e-05 4.05994e-05)
(-5.03392e-05 -2.32147e-05 3.90781e-05)
(1.89879e-05 7.07869e-06 3.7101e-05)
(6.6446e-05 2.61154e-05 0.000100575)
(7.50357e-05 2.08144e-05 6.48795e-05)
(0.000120743 4.07742e-05 0.000127198)
(0.000168917 3.33425e-05 9.85029e-05)
(5.64549e-05 1.90722e-05 4.46438e-05)
(8.35769e-05 2.56391e-05 6.60563e-05)
(0.000165912 4.11031e-05 8.60096e-05)
(0.00032135 4.32084e-05 0.000346634)
(0.000394737 1.07377e-05 0.000429552)
(0.000343016 2.36046e-05 0.000378056)
(0.000394104 1.79389e-05 0.000418247)
(0.000218829 5.12421e-05 0.000241611)
(0.000301891 2.71479e-05 0.000299133)
(0.000260925 3.77795e-05 0.00026017)
(0.00028723 3.88941e-05 0.000292373)
(0.000219749 5.07541e-05 0.000217977)
(0.000260891 4.75848e-05 0.00027725)
(0.000344675 7.67849e-06 0.000275125)
(0.00041266 2.05517e-05 0.000363003)
(0.000424861 -4.9517e-06 0.000406592)
(0.00039154 8.56576e-06 0.000340214)
(0.000350043 3.59815e-05 0.000366647)
(0.000224998 3.61503e-05 0.000131164)
(0.000255181 3.54703e-05 0.000174885)
(0.000317981 1.89539e-05 0.000236627)
(0.000286751 2.85771e-05 0.000168658)
(0.000286879 3.3597e-05 0.000203648)
(0.000214808 4.35281e-05 0.000133078)
(0.000270303 3.43053e-05 0.00017033)
(0.000382404 2.96216e-05 0.000306322)
(0.000410679 6.51691e-07 0.000326122)
(0.000474374 -1.57118e-05 0.000326344)
(0.000402236 9.7261e-06 0.000271749)
(0.000367416 1.56578e-05 0.000237921)
(0.000396172 7.15677e-06 0.000243351)
(0.000269742 4.66703e-05 0.000459167)
(0.000278942 2.56599e-05 0.000459239)
(0.000315052 -2.2919e-05 0.000488666)
(0.000303899 1.33153e-05 0.000476031)
(0.000252733 6.13626e-05 0.000427166)
(0.000283894 6.64275e-06 0.000428915)
(0.000405356 -2.69784e-05 0.000601456)
(0.000279186 2.92925e-05 0.000458648)
(0.000298563 1.38705e-05 0.000460247)
(0.000340598 2.33537e-05 0.000526024)
(0.000323972 8.29289e-06 0.000465388)
(0.000288927 2.53395e-05 0.000424575)
(0.000317329 2.58858e-05 0.00046711)
(0.000422794 -6.28965e-06 0.000604715)
(0.000452703 1.66288e-05 0.000743512)
(0.000334265 3.95626e-05 0.000530474)
(0.000375747 4.20769e-05 0.000605994)
(0.000380766 5.39965e-05 0.00063756)
(0.000399156 1.5824e-06 0.000609072)
(0.000527041 -7.01501e-05 0.000741856)
(0.000475613 -8.20198e-05 0.000646037)
(0.000381892 7.60051e-05 0.000635775)
(0.000387216 1.14533e-05 0.00058996)
(0.000331742 3.21334e-05 0.000494353)
(0.000371099 2.61243e-05 0.000546225)
(0.000351795 1.28762e-05 0.000486567)
(0.000298025 3.36992e-05 0.000425296)
(0.00033818 2.78978e-05 0.000474877)
(-3.63741e-05 -3.00276e-05 0.000161678)
(0.000427446 -3.02641e-05 0.000570282)
(0.000371501 2.03828e-05 0.00049535)
(0.00041968 3.4783e-05 0.000570312)
(0.000369057 1.9259e-05 0.000557644)
(0.000412058 -2.45745e-08 0.000566277)
(0.000475966 -1.18569e-05 0.000642196)
(0.000385927 -7.00779e-07 0.000491785)
(0.000349087 1.0997e-05 0.000415508)
(0.000357894 4.26084e-05 0.000492462)
(0.000603756 -3.34419e-05 0.000921334)
(0.000407108 3.41534e-05 0.000636989)
(-3.6511e-05 -2.5833e-05 0.000149376)
(0.000427054 1.43787e-05 0.000632012)
(0.000487423 1.95733e-05 0.000730402)
(0.0005783 -3.18568e-05 0.000838876)
(0.000552234 -5.51192e-05 0.000746717)
(0.000383435 2.11337e-05 0.00055022)
(-4.16516e-05 -2.12633e-05 0.000161185)
(0.000449182 -7.14434e-05 0.000516024)
(0.000483352 9.0996e-06 0.000655294)
(0.000551826 -1.5258e-05 0.000807794)
(0.000461603 8.07225e-06 0.000669238)
(0.000520917 2.36667e-05 0.000751144)
(0.000564464 -1.03726e-05 0.000768518)
(0.000470598 5.20249e-05 0.000669273)
(0.0006308 -6.43266e-05 0.000817492)
(0.000516754 -1.97017e-05 0.00067355)
(0.00056511 4.25733e-06 0.000777025)
(0.000460458 3.83971e-05 0.000725646)
(0.000462577 -1.23115e-05 0.000684668)
(0.000563669 -4.013e-05 0.000817357)
(0.000626705 -1.67813e-05 0.000947898)
(0.000596064 -8.21933e-05 0.000861191)
(0.000532749 9.67846e-05 0.000844354)
(0.000652114 -5.87635e-05 0.000988914)
(0.000601652 0.000122271 0.00096341)
(0.000559732 4.3827e-05 0.000877765)
(0.00054237 2.13364e-05 0.000820047)
(0.000644899 -4.21583e-05 0.000934028)
(0.000509568 2.90585e-06 0.000775974)
(0.00053829 -1.18905e-05 0.000764709)
(0.000624998 -4.4429e-05 0.000860839)
(0.000737355 -6.59035e-05 0.00098748)
(0.000536934 -1.38285e-05 0.000775206)
(0.000588385 -4.08046e-05 0.000755266)
(0.000648401 2.8321e-05 0.000903686)
(0.000396008 2.3596e-05 0.000484458)
(0.000378211 -2.20117e-05 0.000458532)
(0.000431328 -2.93176e-05 0.00047531)
(0.000438804 2.98947e-05 0.000573909)
(0.000516631 2.70641e-07 0.000655314)
(0.000454981 3.67902e-05 0.000567005)
(0.000447721 -1.47059e-05 0.000492511)
(0.000429886 2.53543e-06 0.00042837)
(0.00044651 1.35461e-05 0.000473642)
(0.000537486 -1.99345e-05 0.00059046)
(0.000492854 -2.30316e-05 0.000504242)
(0.000531235 -1.40557e-05 0.000568527)
(0.000579611 -4.33467e-05 0.000686786)
(-4.43794e-05 -1.70624e-05 0.00015941)
(0.000492783 -7.79804e-06 0.000600846)
(0.000540445 -9.08906e-06 0.000667286)
(0.000679628 -9.17783e-05 0.000829473)
(0.000578943 -2.95922e-05 0.000687548)
(0.000617369 -2.51855e-06 0.0007903)
(-4.76819e-05 -1.23551e-05 0.000160721)
(0.000622781 -6.59892e-05 0.00068656)
(0.000589123 -8.92111e-05 0.000530541)
(-3.61909e-05 -3.44753e-05 0.00018423)
(0.00059115 -1.93403e-06 0.000698629)
(0.0004846 -9.20711e-06 0.000473196)
(-4.02666e-05 -2.71449e-05 0.000187503)
(0.00047262 -1.98877e-05 0.00040913)
(0.000486342 6.12313e-06 0.00046821)
(-3.44551e-05 -3.42736e-05 0.000169372)
(0.000559111 -4.60629e-06 0.0004465)
(-3.75997e-05 -1.66932e-05 0.00017065)
(-4.09257e-05 -2.87041e-05 0.000184236)
(0.000542127 -5.85698e-05 0.000482066)
(0.000559866 -6.84675e-05 0.000427856)
(-4.21126e-05 -2.72999e-05 0.000184003)
(0.000562706 5.47317e-06 0.000593356)
(0.000603685 -0.000444856 0.000183521)
(-4.56648e-05 -1.9825e-05 0.000179255)
(0.000635365 -0.000472952 9.31781e-05)
(0.00052027 -0.000407116 0.000100945)
(-4.46615e-05 -2.04672e-05 0.000183319)
(0.000464661 -0.00039729 0.000162758)
(0.000513353 -0.000432808 0.000126677)
(-4.85735e-05 -1.30464e-05 0.000192066)
(0.000395692 -0.000359943 0.000102813)
(0.000476421 -0.000372764 0.000212758)
(-3.73413e-05 -1.96406e-05 0.000165192)
(-3.38149e-05 -1.73902e-05 0.000152299)
(0.0005052 -0.000409401 9.24487e-05)
(-3.94668e-05 -2.38192e-05 0.000154754)
(-4.13521e-05 -1.82165e-05 0.000169186)
(0.000343669 -0.000323962 0.000155566)
(-3.97774e-05 -1.5823e-05 0.000153615)
(-4.37366e-05 -1.32011e-05 0.000167555)
(0.000397862 -0.00037456 0.000137091)
(-4.23057e-05 -1.25819e-05 0.000151769)
(0.000304083 -0.000293703 0.000124652)
(0.000213324 -0.000229444 0.000113599)
(0.000303524 -0.000301453 0.000154781)
(0.000233711 -0.000222646 0.000148802)
(0.000197541 -0.000207835 0.00011649)
(0.000260437 -0.000239722 0.000138032)
(0.000203493 -0.000205654 0.000120928)
(0.000339877 -0.000282043 0.000204375)
(0.000368247 -0.00031927 0.00013311)
(0.000408392 -0.000407502 6.05475e-05)
(0.000545874 -0.000462728 7.60696e-05)
(0.000394982 -0.000338176 0.000114357)
(0.000242225 -0.000253343 7.76165e-05)
(0.00039111 -0.000368989 0.000108885)
(0.000289465 -0.000257143 0.000142057)
(0.000270346 -0.000270678 0.000152582)
(0.000294077 -0.000247492 0.000175635)
(0.000341097 -0.000292878 0.000112204)
(0.00015685 -0.000194506 6.40632e-05)