/*--------------------------------*- C++ -*----------------------------------*\
  =========                 |
  \\      /  F ield         | OpenFOAM: The Open Source CFD Toolbox
   \\    /   O peration     | Website:  https://openfoam.org
    \\  /    A nd           | Version:  7
     \\/     M anipulation  |
\*---------------------------------------------------------------------------*/
FoamFile
{
    version     2.0;
    format      ascii;
    class       volScalarField;
    location    "7";
    object      p;
}
// * * * * * * * * * * * * * * * * * * * * * * * * * * * * * * * * * * * * * //

dimensions      [0 2 -2 0 0 0 0];

internalField   nonuniform List<scalar> 
382612
(
0.00208358
0.00184994
0.00200154
0.00200428
0.00174848
0.00221504
0.00212648
0.00201609
0.00184355
0.00169201
0.00188169
0.00186958
0.00182012
0.00184799
0.00195492
0.002079
0.00185966
0.0019995
0.00202626
0.00204672
0.00206628
0.0020916
0.00211688
0.00212952
0.00211032
0.00208651
0.00206333
0.00247746
0.00252234
0.00256019
0.00259162
0.00238204
0.00237537
0.00236633
0.0023502
0.00226305
0.0019678
0.00205089
0.00211311
0.00214457
0.00217046
0.00219343
0.00211095
0.00209479
0.00207343
0.00204649
0.00196283
0.00197728
0.00199782
0.00201476
0.00217232
0.0021559
0.00213627
0.0021151
0.00208726
0.00193267
0.00198158
0.00206097
0.00212427
0.0020164
0.00208987
0.00197155
0.00198981
0.00261888
0.0020328
0.00187531
0.0021446
0.00234699
0.00244825
0.00258149
0.00259924
0.00260171
0.00260296
0.00274716
0.00273749
0.00272464
0.0026998
0.00259361
0.00238877
0.00249276
0.00253334
0.00256064
0.00257986
0.00291395
0.00292106
0.00292913
0.00291267
0.00275653
0.0021333
0.00226156
0.00229316
0.00230853
0.00231871
0.00249416
0.00250834
0.00252565
0.00252613
0.00245287
0.00202223
0.00208859
0.00211192
0.00212578
0.00214064
0.00215753
0.00203346
0.002026
0.0020174
0.00201401
0.00182489
0.00185408
0.00187565
0.00189131
0.00214105
0.00212185
0.00210043
0.00207906
0.00204959
0.00171356
0.00182711
0.00185952
0.00187481
0.00188405
0.00204731
0.0020283
0.00200766
0.0019843
0.00191596
0.00166302
0.00184414
0.0019776
0.00200106
0.00201023
0.0020134
0.00222244
0.00223106
0.00224306
0.0022553
0.00236707
0.00234547
0.00221706
0.00218616
0.00216711
0.00215347
0.00189724
0.00188718
0.00187528
0.00186856
0.00198969
0.00200355
0.00201522
0.00202284
0.00201782
0.00201371
0.00200634
0.00200092
0.00204269
0.00196123
0.00189236
0.00189237
0.00189925
0.00190401
0.00183496
0.00198883
0.00202533
0.00171238
0.00186911
0.00181607
0.00210282
0.0023123
0.00177408
0.00179729
0.002131
0.00174257
0.00181664
0.00179606
0.00172998
0.00172705
0.00173589
0.00174145
0.00225056
0.00226131
0.00227901
0.00230165
0.00229864
0.00195817
0.00191988
0.00191013
0.00190982
0.00191137
0.00223784
0.00225289
0.00227711
0.00230693
0.00233481
0.00200509
0.00211763
0.00212622
0.00212509
0.00212029
0.00211719
0.0019322
0.00193239
0.00193482
0.00194681
0.00164143
0.00164474
0.001652
0.00165496
0.00198424
0.00198457
0.00198437
0.00198671
0.00202346
0.00166601
0.00165608
0.00202562
0.00192402
0.00160482
0.00183686
0.00198147
0.00169094
0.00197168
0.00193969
0.00166152
0.00157723
0.0018942
0.00190942
0.00175692
0.00157547
0.00180841
0.00194963
0.00200636
0.00198768
0.00197364
0.00183952
0.00167889
0.0020109
0.00193289
0.00199561
0.00203192
0.00195299
0.00199677
0.00211915
0.00209922
0.00190156
0.00194162
0.00197932
0.00199022
0.00200384
0.00201828
0.00217264
0.00217009
0.00216141
0.0021209
0.0023889
0.00236473
0.00234622
0.00232915
0.00275403
0.00274374
0.00273405
0.00271002
0.00257391
0.00248945
0.00242477
0.00243154
0.00244369
0.00244727
0.0024533
0.00211484
0.00211682
0.00211191
0.00209803
0.0021063
0.0025729
0.00253664
0.00253985
0.00254942
0.00255779
0.00238637
0.00237261
0.00235054
0.00233322
0.0023567
0.00257688
0.00253159
0.00253109
0.00254504
0.00255654
0.00276108
0.00276143
0.0027611
0.00275154
0.00267901
0.00259313
0.00271928
0.00274944
0.00276246
0.00277004
0.00319303
0.00319916
0.00320702
0.00318833
0.00301187
0.00223584
0.00226352
0.00227928
0.00230172
0.0023201
0.00239174
0.00238378
0.00237302
0.0023514
0.00225019
0.00206385
0.00214387
0.00217721
0.00220151
0.00221772
0.00255749
0.00257208
0.00259574
0.00260606
0.00251863
0.00185264
0.0018526
0.0018589
0.00187606
0.00189231
0.00197514
0.001977
0.00198948
0.00200395
0.00201375
0.00194723
0.00193207
0.00191304
0.00190194
0.00188899
0.00244293
0.00244937
0.00242879
0.00240252
0.00238386
0.00186891
0.00185956
0.00184844
0.00184971
0.00188806
0.00237939
0.00233013
0.00229877
0.00227348
0.00225743
0.00174114
0.00173681
0.00173229
0.00174644
0.00184401
0.00203965
0.00197659
0.00196794
0.00197263
0.00197792
0.00221771
0.00223077
0.00225064
0.00227759
0.00232797
0.00194352
0.00185153
0.00183952
0.00184617
0.00185249
0.00218575
0.00219675
0.00221267
0.00223048
0.00223953
0.00200687
0.00204388
0.00204615
0.00204705
0.00204394
0.00204097
0.00196104
0.00196035
0.00196013
0.0019657
0.00180243
0.00179989
0.00180156
0.00180243
0.00198121
0.00198454
0.00198748
0.00198968
0.00199818
0.00182164
0.00207614
0.00202106
0.00200846
0.00200479
0.00200217
0.00195074
0.00211927
0.00220067
0.0021501
0.0021342
0.00212575
0.00212001
0.00198372
0.00198357
0.00198295
0.00198235
0.00203701
0.00203452
0.00203059
0.00202756
0.00205196
0.00205343
0.00205572
0.00205736
0.00203555
0.00203718
0.00204103
0.00204374
0.00221439
0.00221893
0.00222377
0.00222795
0.00225045
0.00205154
0.00206062
0.00208993
0.00215298
0.00199567
0.00205336
0.00201534
0.00189428
0.00177852
0.00197515
0.00197794
0.00180923
0.00215015
0.00210953
0.00208016
0.00211744
0.00199117
0.00203997
0.00209884
0.00217962
0.0021747
0.00227686
0.00226954
0.00223314
0.00222672
0.00222775
0.00222964
0.00230847
0.00230563
0.00230165
0.00229756
0.00229877
0.00235662
0.00236193
0.00236301
0.00236476
0.00236738
0.00229695
0.00229776
0.00229827
0.00229637
0.0022959
0.00212533
0.00207152
0.00207806
0.00207963
0.00207861
0.00207792
0.00213624
0.00213002
0.00212206
0.00211728
0.00206749
0.00207135
0.00207603
0.00207949
0.00205201
0.00205332
0.00205509
0.00205514
0.00205267
0.00206745
0.00225985
0.00224407
0.00224397
0.00224272
0.00224047
0.00225704
0.00233665
0.00228665
0.00227089
0.00227552
0.00228346
0.00228929
0.002498
0.00249751
0.00249515
0.00248402
0.00244744
0.00247757
0.00250055
0.00250944
0.00251516
0.0025193
0.00242844
0.00242297
0.00241589
0.00240872
0.00240682
0.00233452
0.00236103
0.00237345
0.00237878
0.00238209
0.00218943
0.00217936
0.00216731
0.00216117
0.00211766
0.00212122
0.00212142
0.00212181
0.0021631
0.00216154
0.00215977
0.00215582
0.00221346
0.00221529
0.00222102
0.00222598
0.00245633
0.00244541
0.00243117
0.00241301
0.00238127
0.002217
0.0021391
0.00212662
0.00224183
0.00217562
0.0021179
0.00208259
0.00214154
0.00199987
0.00203161
0.00208412
0.00212472
0.00218199
0.00209449
0.002104
0.00220955
0.00216554
0.00210278
0.00228655
0.00235282
0.00244424
0.00247815
0.00242989
0.00243391
0.00244146
0.00245021
0.00245649
0.00258695
0.00258016
0.00257
0.00255483
0.00252545
0.00255362
0.002584
0.00259608
0.0026031
0.00260748
0.00251634
0.00251246
0.00250613
0.00249532
0.00248225
0.00248565
0.00249818
0.00250538
0.00250899
0.00251112
0.00244287
0.0024323
0.00241837
0.00240225
0.0023692
0.00223221
0.00225477
0.00225458
0.00225204
0.00225006
0.00232635
0.00231707
0.00230597
0.00229054
0.00224238
0.0021612
0.00210753
0.00211771
0.00212239
0.00212284
0.00212249
0.00214728
0.00214329
0.00213877
0.00214095
0.00218791
0.00219293
0.00219973
0.00220502
0.00213678
0.00213576
0.00213503
0.00213372
0.00212482
0.00218332
0.00216791
0.00210521
0.00210697
0.002155
0.00211107
0.00207853
0.00209194
0.00213498
0.00223524
0.0021353
0.00206452
0.00209038
0.00217114
0.00208545
0.00231145
0.00264079
0.00222457
0.00211167
0.00236115
0.00249738
0.00257513
0.00258602
0.00256112
0.00253774
0.00245239
0.00248504
0.00249977
0.00250675
0.00251073
0.00258815
0.00258326
0.00257724
0.00256838
0.00254008
0.00256854
0.00260139
0.00261149
0.0026178
0.00262261
0.00257442
0.00256613
0.00255513
0.00254337
0.00252878
0.0025656
0.00259857
0.00261085
0.00261812
0.00262314
0.00258352
0.00258033
0.00257383
0.0025594
0.00252029
0.00240313
0.00240005
0.00240543
0.00241334
0.00241979
0.00247428
0.00247201
0.00246895
0.00246171
0.00243618
0.00231661
0.00231721
0.0023229
0.00232868
0.00233252
0.00220202
0.00219788
0.00219275
0.00218804
0.0021817
0.00211644
0.00209166
0.00210027
0.00210356
0.00210346
0.0021017
0.0021254
0.00212174
0.00211681
0.00211344
0.00210334
0.00210504
0.00210841
0.00211216
0.00207496
0.00207509
0.00207315
0.0020681
0.00206508
0.00210908
0.00220084
0.00219574
0.00220013
0.00220572
0.00221039
0.00215657
0.00215221
0.00214669
0.00214255
0.00214457
0.00206523
0.00204871
0.00206019
0.0020639
0.00206553
0.00206753
0.00209005
0.00208443
0.00207763
0.00207214
0.00209155
0.00209242
0.00209388
0.00209518
0.00208661
0.00208431
0.00208391
0.00208312
0.00207478
0.00208952
0.00208529
0.00205459
0.00207433
0.00207684
0.00202049
0.00202172
0.00210309
0.00213668
0.00216372
0.00209502
0.00207173
0.00205419
0.00209403
0.00207378
0.00198404
0.00189282
0.00213521
0.00208464
0.00215302
0.00221413
0.0023364
0.00218479
0.00218318
0.00234038
0.00208217
0.00205538
0.00212823
0.00225946
0.00218198
0.002107
0.00209903
0.00222373
0.00226889
0.00213243
0.00208571
0.00208157
0.00232775
0.00231681
0.00237168
0.00237618
0.00238704
0.00237245
0.0023693
0.00236968
0.00237082
0.00236896
0.00236768
0.00236725
0.00236949
0.00236901
0.00245608
0.00247359
0.00247769
0.00248101
0.0024839
0.00240339
0.00240138
0.00239701
0.00238644
0.00236351
0.00230812
0.00230208
0.00230116
0.00230347
0.00230652
0.00241696
0.00241234
0.00240705
0.00240012
0.0023783
0.0024133
0.00243984
0.0024495
0.00245694
0.00246297
0.00255228
0.00254756
0.00254007
0.00252368
0.00248234
0.00241122
0.0024328
0.00244658
0.00245499
0.0024601
0.00254149
0.00253577
0.00252909
0.00252202
0.00250231
0.00249355
0.00250655
0.00251231
0.00251671
0.00251998
0.00243433
0.00243181
0.00242956
0.00242726
0.0024135
0.00236066
0.00235329
0.00235155
0.00235325
0.0023551
0.00226229
0.00225698
0.00225054
0.0022479
0.00226032
0.00227689
0.00229427
0.00229799
0.00229811
0.00229841
0.00218032
0.00218245
0.00218407
0.00218374
0.00217472
0.00217455
0.00219049
0.00219079
0.00218737
0.00218397
0.00205207
0.00204777
0.00204309
0.00204232
0.0020695
0.00207482
0.00207787
0.0020806
0.0020692
0.00206534
0.00206054
0.00205339
0.00204503
0.00204934
0.00204733
0.00205204
0.00205724
0.00206109
0.00208394
0.00208466
0.00208495
0.00208522
0.00208526
0.00206668
0.00206413
0.00206366
0.00206377
0.00206367
0.00202232
0.0020184
0.00201314
0.00200933
0.00202377
0.0020284
0.00203225
0.00203612
0.0021039
0.00210017
0.00209828
0.00209609
0.0020715
0.00206889
0.00207091
0.00207369
0.00210376
0.002108
0.00211385
0.00212006
0.00212526
0.00208363
0.00209047
0.00207167
0.00205033
0.0018984
0.00197386
0.002096
0.00205345
0.00201267
0.00204616
0.00208632
0.00209729
0.0018222
0.00196843
0.00195993
0.00178757
0.00187644
0.00195079
0.00201261
0.001979
0.00209271
0.00206103
0.00210855
0.00220229
0.00230073
0.00213951
0.00210554
0.00217336
0.0021991
0.002137
0.00202606
0.0020264
0.00198483
0.00226806
0.00251835
0.00268959
0.00275795
0.0027107
0.00256018
0.00234949
0.00211365
0.00189734
0.00175883
0.00180602
0.00181884
0.00181794
0.00181484
0.00194485
0.00193782
0.00193016
0.00192563
0.00192056
0.00213328
0.00220008
0.00221686
0.00221805
0.00221663
0.00230124
0.00229274
0.0022829
0.00227545
0.00225758
0.00220521
0.00225586
0.00226809
0.0022736
0.00227753
0.00226126
0.00225964
0.00225461
0.00224029
0.00218924
0.00236838
0.00238044
0.00238568
0.00239421
0.00240199
0.00234178
0.00234089
0.00233673
0.00232183
0.00227177
0.00219482
0.00220645
0.00221282
0.00221684
0.00221865
0.00235067
0.00234639
0.00234276
0.00234314
0.00234573
0.0023182
0.00231426
0.00232007
0.00232674
0.00233158
0.00232655
0.00232499
0.00232115
0.00231322
0.00230419
0.00225375
0.00227196
0.00227874
0.00228036
0.00228033
0.00218103
0.00217836
0.00217513
0.00217434
0.0021797
0.00224117
0.00223119
0.00222544
0.00222233
0.00222096
0.00212986
0.0021249
0.00211979
0.0021215
0.00214956
0.0021199
0.00210799
0.00211006
0.00211416
0.00211696
0.0021372
0.00214185
0.00214937
0.00215834
0.00216074
0.00204507
0.00203207
0.00203401
0.0020368
0.00203841
0.00199934
0.00199716
0.0019938
0.00199233
0.002007
0.00201401
0.002009
0.00200944
0.0020099
0.00200917
0.00204404
0.00204033
0.00203519
0.00203113
0.00203272
0.00197912
0.00200358
0.00201201
0.00202187
0.00203149
0.00203968
0.00201761
0.00201038
0.00199971
0.00198789
0.00200972
0.00201066
0.00201304
0.00201487
0.00204699
0.00204496
0.00204292
0.00203881
0.00203039
0.00201946
0.00206331
0.00208364
0.00207569
0.00202395
0.00193057
0.0020294
0.00198365
0.00185835
0.00200813
0.00203343
0.00188252
0.00168329
0.00177358
0.00195255
0.00186209
0.00165696
0.00181948
0.00188451
0.00193083
0.00191769
0.00195154
0.00197235
0.00200423
0.00195631
0.00163866
0.00184637
0.00185368
0.00164497
0.00162153
0.0016856
0.00176639
0.00194879
0.00213186
0.00226555
0.00231734
0.00226298
0.00210828
0.00188118
0.0016306
0.00139988
0.00129256
0.00134604
0.0013539
0.0013493
0.00134386
0.00145939
0.00145283
0.00144636
0.0014429
0.00143431
0.00172995
0.00178474
0.00179606
0.00179356
0.00178873
0.00191522
0.001907
0.00189793
0.00189339
0.00188984
0.00207257
0.00208435
0.00209023
0.00209622
0.00210071
0.00200084
0.00199515
0.00198998
0.00199135
0.00199239
0.00214969
0.00213302
0.00213018
0.00213431
0.0021389
0.00205923
0.00205666
0.00205681
0.00206491
0.00207097
0.00216862
0.00213813
0.00212644
0.00212545
0.0021269
0.00213451
0.00213279
0.00213004
0.00212889
0.00214109
0.00227221
0.00227207
0.00226668
0.00226486
0.00226563
0.00221447
0.00221371
0.00221414
0.00222174
0.00225248
0.00217516
0.00217486
0.00216734
0.00216398
0.00216299
0.00214585
0.0021475
0.00215155
0.00216132
0.00217705
0.00210307
0.00209071
0.00208944
0.00209143
0.00209324
0.00215481
0.00215462
0.00215385
0.0021514
0.00214359
0.00217885
0.00214422
0.002199
0.00219643
0.00212641
0.00212564
0.00212928
0.00213164
0.00213213
0.00205862
0.00205679
0.00205532
0.00205925
0.00208281
0.00203401
0.00202994
0.00203279
0.00203344
0.00203304
0.00201887
0.00201755
0.00201525
0.00201282
0.00202126
0.00201334
0.00201742
0.00201856
0.00201834
0.00201795
0.00197018
0.00197066
0.00197156
0.00197591
0.00199726
0.00215282
0.00214672
0.00213217
0.00212142
0.00211548
0.00208524
0.00208851
0.0020953
0.00211165
0.00216291
0.00206681
0.00207995
0.00207187
0.00206915
0.00206777
0.00206868
0.00201759
0.0020192
0.00202283
0.00203468
0.00195647
0.00196693
0.00197241
0.00197574
0.00209842
0.00209537
0.0020917
0.00208228
0.002056
0.00193371
0.0019958
0.00212339
0.00202375
0.00193041
0.0019206
0.00209837
0.00194612
0.00193697
0.00196749
0.00197798
0.00197967
0.00197884
0.00188937
0.0018889
0.00188727
0.00188628
0.0018951
0.00194994
0.00198319
0.00198638
0.00198448
0.00198202
0.0020206
0.00202782
0.00203421
0.00202957
0.00197469
0.00196438
0.00200906
0.00203108
0.00203761
0.00204223
0.00204817
0.00201112
0.0020137
0.00201452
0.00200716
0.00194381
0.00195127
0.00196063
0.00196695
0.00206538
0.00205906
0.00205126
0.00203983
0.00202358
0.00196019
0.00205726
0.00206216
0.00203328
0.00195986
0.00177363
0.00194446
0.00190589
0.00167039
0.00163142
0.00185177
0.00178753
0.00155639
0.00180289
0.00187655
0.00194314
0.00198446
0.00183641
0.00185322
0.00190227
0.00187675
0.00184396
0.00193234
0.0019929
0.00192702
0.00205542
0.0020478
0.00199132
0.00194196
0.0018844
0.00200233
0.00193703
0.00177464
0.00204576
0.00206116
0.0020547
0.00208337
0.00203084
0.00203082
0.00200553
0.00203764
0.00168521
0.00185086
0.00189883
0.00167439
0.00175239
0.00191246
0.00195946
0.00198008
0.0018646
0.00194415
0.00188839
0.00176295
0.00174266
0.00188443
0.00192145
0.00170256
0.00177149
0.00194485
0.00195291
0.00174938
0.00184209
0.00197929
0.00199558
0.00188337
0.0017725
0.00198068
0.00194406
0.00169716
0.00193593
0.00192794
0.00189833
0.00185567
0.00177681
0.00176696
0.00177
0.00177162
0.00199672
0.00199711
0.00199785
0.00200578
0.00205564
0.0022799
0.00222428
0.00220427
0.00219399
0.00218877
0.00198581
0.00198089
0.00197596
0.00198496
0.00206105
0.00224031
0.00221304
0.00219875
0.00219184
0.00218873
0.00214318
0.00213962
0.00213622
0.00214125
0.00219169
0.00211776
0.00209707
0.00198064
0.00193984
0.00188859
0.00188096
0.00188244
0.00188321
0.00207562
0.00207745
0.00207832
0.00207808
0.00209701
0.00227489
0.00223965
0.00222563
0.0022215
0.00222055
0.00213546
0.00213138
0.00212662
0.00212951
0.00217204
0.00231367
0.00230783
0.00230105
0.00229788
0.00229648
0.00221447
0.00221426
0.00221401
0.00221757
0.00224872
0.00224117
0.00222135
0.00213946
0.00209136
0.00201554
0.00198034
0.00197759
0.00197938
0.0019807
0.00216265
0.00216337
0.00216695
0.00217864
0.00219416
0.00226462
0.00225689
0.00224984
0.00224857
0.0022495
0.00227383
0.00227195
0.00226884
0.00226492
0.0022677
0.00229733
0.00230399
0.00230811
0.00230834
0.00230768
0.00232711
0.00243485
0.00240018
0.0022865
0.00212486
0.00201978
0.0020403
0.00204823
0.00204773
0.0020453
0.00218821
0.00218387
0.00218191
0.00218711
0.0021948
0.00223466
0.00224825
0.00225279
0.00225928
0.00226578
0.0021468
0.00215009
0.00215047
0.00213721
0.00209034
0.00190124
0.00187984
0.00187775
0.00188354
0.00188932
0.00174133
0.0017457
0.00174866
0.00174051
0.00171627
0.00148666
0.00147384
0.00146679
0.00146671
0.0014685
0.0014776
0.00147419
0.001471
0.00147235
0.0014803
0.00122549
0.00121967
0.0012212
0.00122706
0.00123278
0.00119839
0.00119799
0.00119926
0.00120224
0.00120061
0.0010345
0.00102188
0.00102323
0.00102563
0.00102785
0.000946661
0.000941013
0.000937584
0.000941207
0.000966113
0.00120729
0.00122555
0.00122868
0.00122316
0.00121627
0.00135102
0.00134528
0.00133996
0.00134225
0.00136249
0.00158574
0.00157324
0.00157326
0.00157796
0.00158312
0.00177865
0.00178358
0.0017877
0.00178262
0.0017514
0.00186078
0.00188893
0.0018961
0.00189644
0.00189619
0.00179928
0.00180194
0.00180308
0.00179939
0.00180475
0.00187987
0.00185985
0.00186144
0.00186564
0.00186932
0.00197951
0.00198005
0.00198005
0.00197651
0.00196738
0.00194616
0.00192643
0.00192385
0.00192386
0.00192313
0.00213292
0.00213439
0.00214023
0.00214997
0.00215902
0.00191739
0.00189423
0.00189404
0.00189731
0.00189924
0.00195341
0.00195414
0.00195502
0.00195432
0.00195042
0.00194604
0.0019203
0.00191532
0.00191449
0.00191426
0.00205832
0.00206324
0.00207305
0.00208983
0.00210304
0.00211518
0.0020818
0.00206881
0.00206337
0.00206088
0.00186963
0.0018671
0.00186318
0.00186014
0.00187229
0.00189095
0.00187761
0.0018787
0.00188064
0.00188157
0.00211603
0.00212572
0.00214268
0.00216666
0.00217179
0.002228
0.00224256
0.00222334
0.00220687
0.00219706
0.0022078
0.00221045
0.00221727
0.00223011
0.00223067
0.00231037
0.00229628
0.00229541
0.00229472
0.00229624
0.00207734
0.00207312
0.00206721
0.00206323
0.00206548
0.00193225
0.00194388
0.00198458
0.00200142
0.00201662
0.00202915
0.0020649
0.00206226
0.00205702
0.00203461
0.00215288
0.00215231
0.00215253
0.00215385
0.00213387
0.00212589
0.00212025
0.00211853
0.00213436
0.00214374
0.0020581
0.00210463
0.0019873
0.00188874
0.00213784
0.00207477
0.00201643
0.00194555
0.00179696
0.00191741
0.00190149
0.00180687
0.00185285
0.00184427
0.0019349
0.00196327
0.00190965
0.00195221
0.00197648
0.00191591
0.00182742
0.00194417
0.00191395
0.00177231
0.00180838
0.00190051
0.00185682
0.0018023
0.00190915
0.00163537
0.00145502
0.00130083
0.00122193
0.00120465
0.00120608
0.00118857
0.00114227
0.00108095
0.00100492
0.000917104
0.000818587
0.000718902
0.000617263
0.000701167
0.000690821
0.000690255
0.000692596
0.000694567
0.000838102
0.000849344
0.000861536
0.000868191
0.000860887
0.000916512
0.00091892
0.00091657
0.000911348
0.000906386
0.000861863
0.000871956
0.000882188
0.000887649
0.000895654
0.00113035
0.00108503
0.0010743
0.00107593
0.00108027
0.00123338
0.00124191
0.00124948
0.00124876
0.00124827
0.00152553
0.00150339
0.00149224
0.00149188
0.00149334
0.00169446
0.00169244
0.00169415
0.00170738
0.00174494
0.00158554
0.00159199
0.00159238
0.00159084
0.00158865
0.00154295
0.00154717
0.0015498
0.00155145
0.00157348
0.00189418
0.0018725
0.00185511
0.00184918
0.00184813
0.00191945
0.00192001
0.00192424
0.00194127
0.00199769
0.00171204
0.0017187
0.00171974
0.00171917
0.0017183
0.00173638
0.00173842
0.00174113
0.0017461
0.00176751
0.00199974
0.00199651
0.00197974
0.00196933
0.00196446
0.00194458
0.00194715
0.00195369
0.00197062
0.00201803
0.00174315
0.00173584
0.0017371
0.00173927
0.00173986
0.00180676
0.00180748
0.00180821
0.00180769
0.00180656
0.00187799
0.00185475
0.00184827
0.00184523
0.00184331
0.0020652
0.00207538
0.00209201
0.00211191
0.00210689
0.0017862
0.00179073
0.00179735
0.00180061
0.00180202
0.00184115
0.00183806
0.00183068
0.00181582
0.0017983
0.00181333
0.00183128
0.00184925
0.00186116
0.00186754
0.00195832
0.00195131
0.00193926
0.00191797
0.00188377
0.00178977
0.00183521
0.00185855
0.00187021
0.00187609
0.0021328
0.0021275
0.00211895
0.00209699
0.00202377
0.00219293
0.00222711
0.00222633
0.00222336
0.00222267
0.00210335
0.00210716
0.0021103
0.0021041
0.00203108
0.00203859
0.00205048
0.00206184
0.00212144
0.00210606
0.00208904
0.00207407
0.00208146
0.00209636
0.00209993
0.00210062
0.00233448
0.00233103
0.00232734
0.00231149
0.00220864
0.00200063
0.00206507
0.00206111
0.00191193
0.00188514
0.00206648
0.00205754
0.0018788
0.00194721
0.00210985
0.00214127
0.00215472
0.00216113
0.0021677
0.00204188
0.00203072
0.00201239
0.0019916
0.00227721
0.00230037
0.00230052
0.00230061
0.00218312
0.00217783
0.00216945
0.00215387
0.00213219
0.00229191
0.00228578
0.00228599
0.00227913
0.00227516
0.00229239
0.00228798
0.00228263
0.00227152
0.00233133
0.00203793
0.0020574
0.00206001
0.00206462
0.00207215
0.00207935
0.00216401
0.00216562
0.00216583
0.0021503
0.00206137
0.00208756
0.00209752
0.0021048
0.00205031
0.00204209
0.00203293
0.00202283
0.00199241
0.00189755
0.0018343
0.00205486
0.00199631
0.00200747
0.00200573
0.00193086
0.00191632
0.00190833
0.00207502
0.00199393
0.00190071
0.00191874
0.00197302
0.00189481
0.00196241
0.00194149
0.00191308
0.00164385
0.00128467
0.000920558
0.00065983
0.000561528
0.000618066
0.000746751
0.000846703
0.000854753
0.000772281
0.000644225
0.000562529
0.000491826
0.000457067
0.000397764
0.000423066
0.000408504
0.000400846
0.000393689
0.00038783
0.000458217
0.000459216
0.00046292
0.000473951
0.000508895
0.00055558
0.000543268
0.00053662
0.000527595
0.000518518
0.00066725
0.000669628
0.000675711
0.000691831
0.000721036
0.000927195
0.00088232
0.000861569
0.000852914
0.000848807
0.000966452
0.000974197
0.000980526
0.000982729
0.000995572
0.00133243
0.00129479
0.00127502
0.00126948
0.00126975
0.00147092
0.00147336
0.00148002
0.00150172
0.00157219
0.00131957
0.0013254
0.0013251
0.00132384
0.00132311
0.00134989
0.00135433
0.00135778
0.00136142
0.00138549
0.00175333
0.00173401
0.00171217
0.0016993
0.00169381
0.00175713
0.00175972
0.00176655
0.00178593
0.00184638
0.00148804
0.00149783
0.00149964
0.00149981
0.00149899
0.00159466
0.00159753
0.00160117
0.00160681
0.00162525
0.0018812
0.00187989
0.00186034
0.00184539
0.0018377
0.00185768
0.00186493
0.00187919
0.00190188
0.00191463
0.00199699
0.00196642
0.00194644
0.00193502
0.0019294
0.00163459
0.00163298
0.00162681
0.00161418
0.00160616
0.00168212
0.0016897
0.00169986
0.00170631
0.00170883
0.00182825
0.00182546
0.00182173
0.00181743
0.00180378
0.00191098
0.00193765
0.00194274
0.00194395
0.00194446
0.00206249
0.00206191
0.00206038
0.00205394
0.0020216
0.00199858
0.00202614
0.00203217
0.00203404
0.00203416
0.00206778
0.00205946
0.00204529
0.00202096
0.00197669
0.00205062
0.00205541
0.00206538
0.00207359
0.00207858
0.00222161
0.00222679
0.0022344
0.0022352
0.00218104
0.00208792
0.0021764
0.00218574
0.00218374
0.00218175
0.00209555
0.00209152
0.00208566
0.00207669
0.00202781
0.00213969
0.00214286
0.00213945
0.00213779
0.00214034
0.00211902
0.00197703
0.00200667
0.00196826
0.00205685
0.00219744
0.00182894
0.00199978
0.00221556
0.0018579
0.00219455
0.00292309
0.00204682
0.00218297
0.0022619
0.00255232
0.00201953
0.0016506
0.00115263
0.000734783
0.000457264
0.000392157
0.000484198
0.000629788
0.000723362
0.000703722
0.000601876
0.000486122
0.000397422
0.000367292
0.000328823
0.000430211
0.000434144
0.000430772
0.000427235
0.000425094
0.000330615
0.000337182
0.000341676
0.000342532
0.000348837
0.000592008
0.000583432
0.00056571
0.000551377
0.000542538
0.000783223
0.000792673
0.000805199
0.000817627
0.000836141
0.000776378
0.000758634
0.00075613
0.000751764
0.000746179
0.00113939
0.00114992
0.00116893
0.00119775
0.00122816
0.00139488
0.00135894
0.00134255
0.00133054
0.0013225
0.00126157
0.00126528
0.00126894
0.00127335
0.00129484
0.00167609
0.00165362
0.00162742
0.00161054
0.00160184
0.00167507
0.00168085
0.00169045
0.00170452
0.0017259
0.00135399
0.00134098
0.00134475
0.00134994
0.00135302
0.00147873
0.0014786
0.00147832
0.00147879
0.0014907
0.00156977
0.00157318
0.00157195
0.00156895
0.00156639
0.00166056
0.00166879
0.00167762
0.00167711
0.00164266
0.00170168
0.00173589
0.00173251
0.00172093
0.00170962
0.00193453
0.00194204
0.00195345
0.00195714
0.00190568
0.00191885
0.00194734
0.00195073
0.00195173
0.00195176
0.00197166
0.00197036
0.00196599
0.00195532
0.00190914
0.00204678
0.00209125
0.00210335
0.00210929
0.00211292
0.00219489
0.00219622
0.00219734
0.00219293
0.00215194
0.00221664
0.00223647
0.00224136
0.00224641
0.00225055
0.00233241
0.00233836
0.00234703
0.0023434
0.00225997
0.00207085
0.00203767
0.00204781
0.00206834
0.00208311
0.00237702
0.00237331
0.00236817
0.00235996
0.00231692
0.00227277
0.00225646
0.00225603
0.00226042
0.00226363
0.00224094
0.00224691
0.00225399
0.00224709
0.00217363
0.0020212
0.00213355
0.00214314
0.00213611
0.00212925
0.00226015
0.00226666
0.00227804
0.00227272
0.0021431
0.00189336
0.00191857
0.00193049
0.00193868
0.00194358
0.00208548
0.00208939
0.00209181
0.00208237
0.00204343
0.00204068
0.00194091
0.00193174
0.00204295
0.0020587
0.00192318
0.00198021
0.00199018
0.00199389
0.00199515
0.00206542
0.00206713
0.00206918
0.00206805
0.00201106
0.00197307
0.00199906
0.00195302
0.00192065
0.00190924
0.00194306
0.00196069
0.00196536
0.00190319
0.00196143
0.00199799
0.00197631
0.00197922
0.00219026
0.00207062
0.00201841
0.0020707
0.00201915
0.00199472
0.00195536
0.00187379
0.00190031
0.00196952
0.00201901
0.00202242
0.00207155
0.00204607
0.00200748
0.00199792
0.00198132
0.00198687
0.00204511
0.00210374
0.0020524
0.0020238
0.00198171
0.00193468
0.00192227
0.00198558
0.00201424
0.00200587
0.00196101
0.00198689
0.00198864
0.00194175
0.00193641
0.00197789
0.00194876
0.00192053
0.00190459
0.00194767
0.00194266
0.00187273
0.00187433
0.00196959
0.00191198
0.0018525
0.00192316
0.00193794
0.00197529
0.00201272
0.00198921
0.00195914
0.00193452
0.00196313
0.00198814
0.00192872
0.00195316
0.00199807
0.00195025
0.00195617
0.00194372
0.00195542
0.00206098
0.00196463
0.00198172
0.00207977
0.00188317
0.00185507
0.00167591
0.00145521
0.00118132
0.000916777
0.000821564
0.000865546
0.00116564
0.00126782
0.0015448
0.00168009
0.00170308
0.0017148
0.00172355
0.00201265
0.00202798
0.00204516
0.00205364
0.00202476
0.00147077
0.00152072
0.00152901
0.00152937
0.00152604
0.0021501
0.0021702
0.00219592
0.00220951
0.00219212
0.00160042
0.00155457
0.00154987
0.00155266
0.00155319
0.00219009
0.00221032
0.00224045
0.00227224
0.00226183
0.00225987
0.00231392
0.00231487
0.00230286
0.00229155
0.00168591
0.0016879
0.00168584
0.00168022
0.00166582
0.00162757
0.00165937
0.00165645
0.001653
0.00165006
0.00203097
0.00204024
0.00205325
0.00207386
0.00215463
0.00168728
0.0016331
0.00162841
0.00163052
0.00162969
0.00176873
0.00177077
0.00177411
0.00178382
0.00182733
0.00219408
0.00210814
0.00208013
0.00206781
0.0020606
0.00198518
0.00199316
0.00200812
0.00203618
0.00206942
0.00214194
0.00206079
0.00203892
0.00203168
0.0020285
0.00199213
0.00199612
0.0020067
0.0020303
0.00207367
0.00204007
0.00199514
0.00198932
0.00199156
0.00199431
0.00174967
0.00170773
0.00170306
0.00170331
0.00170216
0.00177528
0.00177583
0.00177517
0.00177734
0.00180362
0.00206355
0.00203213
0.00201152
0.0020023
0.0019995
0.00197592
0.00197342
0.00197377
0.00198936
0.0020618
0.00207422
0.00207168
0.00207487
0.00207537
0.00207454
0.00212049
0.00212053
0.00212022
0.00211773
0.0021118
0.00219496
0.00210918
0.00194865
0.00173542
0.00163515
0.00162902
0.00163123
0.0016289
0.00162485
0.0018493
0.0018505
0.00185483
0.00187256
0.00190794
0.00191208
0.0018918
0.00188309
0.00188303
0.0018849
0.00169139
0.00169663
0.00170151
0.00169804
0.00168659
0.00152053
0.00149901
0.00148621
0.00148172
0.00148031
0.00124365
0.00124379
0.00124792
0.00126361
0.0012941
0.00124828
0.00122911
0.00122206
0.00122169
0.00122285
0.00107634
0.0010851
0.00109399
0.00109651
0.00109227
0.00115058
0.00118181
0.00118157
0.00117042
0.00115912
0.000821752
0.000819098
0.000817902
0.000822993
0.00084211
0.00086395
0.000845296
0.000845529
0.000850105
0.000853679
0.000803371
0.00080521
0.000808088
0.000813816
0.000831333
0.00084853
0.000858665
0.000852101
0.000840831
0.000831593
0.0005923
0.000590206
0.000588359
0.000590234
0.000604136
0.000585567
0.000550435
0.000544705
0.000545346
0.000546542
0.000545373
0.000548601
0.000552635
0.0005578
0.00057273
0.00056914
0.000561714
0.000553683
0.000544103
0.000535914
0.000579887
0.000579921
0.000582002
0.000591694
0.000624671
0.000756511
0.000723669
0.000713394
0.000711779
0.000711894
0.000624028
0.000545356
0.000579817
0.000560807
0.000552961
0.000547413
0.000543259
0.000461215
0.000455354
0.000486688
0.000489015
0.000485471
0.000479355
0.000473926
0.000465646
0.000463912
0.000463603
0.00046929
0.000498727
0.000450657
0.00044606
0.000443024
0.000438668
0.000434781
0.000377519
0.000377335
0.00037771
0.000380459
0.000392636
0.000338069
0.000326985
0.000324046
0.000325471
0.000327236
0.000368488
0.000370617
0.000374658
0.000385115
0.000411897
0.000437475
0.000427397
0.000423083
0.000416168
0.000409266
0.000555512
0.000559197
0.000567713
0.000585083
0.000612033
0.000827993
0.000779626
0.000760806
0.00075099