/*--------------------------------*- C++ -*----------------------------------*\
  =========                 |
  \\      /  F ield         | OpenFOAM: The Open Source CFD Toolbox
   \\    /   O peration     | Website:  https://openfoam.org
    \\  /    A nd           | Version:  7
     \\/     M anipulation  |
\*---------------------------------------------------------------------------*/
FoamFile
{
    version     2.0;
    format      ascii;
    class       volVectorField;
    location    "7";
    object      wallShearStress;
}
// * * * * * * * * * * * * * * * * * * * * * * * * * * * * * * * * * * * * * //

dimensions      [0 2 -2 0 0 0 0];

internalField   uniform (0 0 0);

boundaryField
{
    outlet1
    {
        type            calculated;
        value           uniform (0 0 0);
    }
    Wall
    {
        type            calculated;
        value           nonuniform List<vector> 
40276
(
(0.00042268 4.96541e-05 0.000169067)
(-0.000186933 -8.54557e-06 0.000415655)
(-0.000190649 -7.79421e-06 0.000407584)
(9.67556e-05 -1.51387e-05 0.000157496)
(8.26308e-05 1.60697e-05 0.000155461)
(8.33041e-05 5.72025e-05 0.000161979)
(9.86977e-05 4.54937e-05 0.000171899)
(0.000135413 3.63488e-05 0.000188541)
(0.000105029 2.45805e-05 0.000170791)
(0.000101598 7.64597e-06 0.000174199)
(0.000389148 3.87487e-05 0.000412708)
(0.000470447 1.59816e-05 0.000447719)
(0.00058461 4.03579e-05 0.000939655)
(0.000562524 3.88738e-05 0.000870292)
(0.000482875 -1.52374e-05 0.000332019)
(0.000431742 1.98212e-06 0.000361195)
(0.000391552 2.1222e-05 6.01185e-05)
(0.000350523 2.38807e-05 2.57535e-05)
(-0.000108542 -1.08473e-05 -0.000167199)
(-0.000117156 -3.8921e-05 -0.0001862)
(-0.00015446 3.90265e-05 0.000211745)
(-0.000185571 4.40614e-05 0.000198628)
(-0.000119787 3.22081e-05 6.79906e-05)
(-0.000138671 2.96311e-05 6.43099e-05)
(-0.000100078 2.37218e-05 4.33927e-05)
(-0.000112366 2.47718e-05 3.76037e-05)
(-0.000123032 4.08866e-05 2.16393e-05)
(-0.000120543 4.13147e-05 1.58032e-05)
(-0.000181024 5.84425e-05 3.27695e-05)
(-0.000162384 5.01259e-05 2.39243e-05)
(-0.000120869 3.94269e-05 7.16077e-05)
(-0.000135319 4.72672e-05 7.90564e-05)
(-5.25661e-05 -3.17686e-06 0.000159659)
(-4.68092e-05 -4.86567e-06 0.000148389)
(-6.21279e-05 1.02679e-05 8.03972e-06)
(-6.10318e-05 1.1658e-05 7.59768e-06)
(0.000567662 6.56253e-05 0.000210829)
(0.000616861 4.69882e-05 0.000232237)
(0.00105998 0.000256076 0.000396342)
(0.00119991 0.000329246 0.000418311)
(0.000990887 6.22623e-05 0.000156788)
(0.000949897 3.42656e-05 0.000183751)
(-4.94617e-05 -1.43867e-05 -0.000389212)
(-2.9361e-05 -1.09603e-05 -0.000353322)
(-5.29382e-05 -2.10483e-06 -0.000354587)
(-4.4737e-05 -6.183e-06 -0.000291837)
(-7.38087e-05 -3.32712e-07 -0.00029985)
(-5.64854e-05 -3.18591e-06 -0.000242358)
(-6.56e-05 -8.07213e-07 -0.000208977)
(-6.39807e-05 1.08631e-06 -0.00017409)
(-5.25619e-05 -1.16823e-06 -0.000142994)
(-6.47625e-05 1.39642e-06 -0.000150057)
(-5.60966e-05 -1.77959e-07 -0.000119939)
(-5.92891e-05 2.25702e-06 -0.000121422)
(0.00044174 8.09017e-05 0.000259795)
(0.000459811 9.49154e-05 0.000228845)
(-1.78606e-05 1.34109e-05 0.000131874)
(6.40991e-05 2.1978e-05 0.000191037)
(-1.07945e-05 8.80385e-06 0.000134587)
(-0.000461109 -0.000147617 -0.000441228)
(-0.000490024 -0.000122728 -0.000451213)
(1.90547e-05 3.45219e-05 0.000291478)
(-1.27936e-05 -1.18288e-05 0.000225301)
(1.02454e-05 -1.0176e-06 -4.58062e-05)
(1.30229e-05 2.80626e-06 -4.25599e-05)
(6.47279e-06 8.93506e-10 -4.16888e-05)
(1.97164e-06 -2.61667e-06 -4.03314e-05)
(1.11791e-05 6.62823e-08 -4.27569e-05)
(-0.000118169 -1.90376e-05 -0.000107557)
(-0.000130293 -8.35616e-06 -0.000116809)
(-5.38639e-05 4.33578e-06 -9.93801e-05)
(-5.47131e-05 8.22767e-08 -0.000101157)
(-1.82837e-05 1.37356e-06 -1.86612e-05)
(-1.82826e-05 1.39036e-06 -1.83997e-05)
(-1.65439e-05 1.44948e-06 -1.80124e-05)
(-1.56789e-05 1.77052e-06 -1.73326e-05)
(-1.78685e-05 8.06183e-07 -1.78543e-05)
(2.28086e-05 -1.60713e-06 -6.26344e-06)
(1.97762e-05 -1.68723e-06 -9.98243e-06)
(-6.83255e-07 4.3979e-06 2.42623e-07)
(8.24848e-08 -1.87898e-07 1.85438e-07)
(7.91406e-06 -1.06581e-06 -4.26831e-07)
(1.89526e-05 2.70527e-07 1.30204e-05)
(1.83942e-05 4.28671e-07 1.33722e-05)
(2.85178e-05 -1.91116e-06 2.00567e-05)
(5.75579e-06 5.04018e-07 -3.67937e-05)
(1.48897e-06 -1.80552e-06 -3.52918e-05)
(4.70719e-06 9.45295e-07 -3.20445e-05)
(2.57328e-05 -2.10177e-06 1.85924e-05)
(2.4792e-05 -1.65862e-06 1.78964e-05)
(2.13243e-05 -1.04917e-06 1.58897e-05)
(-4.46935e-05 -4.75288e-06 -4.04438e-05)
(6.14788e-07 -1.12098e-06 -3.08064e-05)
(3.68826e-06 1.23891e-06 -2.79975e-05)
(2.72519e-08 -5.61214e-07 -2.7057e-05)
(-5.54151e-07 -3.16921e-07 -2.36142e-05)
(-1.09178e-06 5.57021e-08 -2.06395e-05)
(-1.84612e-06 2.08438e-07 -1.85797e-05)
(-5.10109e-06 -3.08527e-07 -1.48708e-05)
(-5.74819e-06 -1.17273e-07 -1.3997e-05)
(-6.57282e-06 1.90636e-11 -1.36448e-05)
(-9.65026e-06 -2.80671e-07 -1.39532e-05)
(-9.90307e-06 -2.07125e-07 -1.4389e-05)
(-5.01753e-05 -1.01751e-06 -4.40194e-05)
(-1.02025e-05 -3.12794e-08 -1.52624e-05)
(-1.88212e-05 -3.81543e-06 -2.2965e-05)
(-1.56781e-05 -3.78226e-06 -1.83439e-05)
(-1.0091e-05 -1.23018e-07 -1.58867e-05)
(-1.00289e-05 3.62476e-08 -1.69397e-05)
(-9.66677e-06 -5.5742e-07 -1.73116e-05)
(-9.86541e-06 4.18291e-08 -1.84066e-05)
(-9.34706e-06 -6.17544e-07 -1.91889e-05)
(-8.79119e-06 -2.67014e-07 -1.96126e-05)
(-8.55795e-06 -1.05537e-06 -2.1146e-05)
(-8.25663e-06 -1.65324e-06 -1.98321e-05)
(4.19557e-06 -8.87056e-07 -2.64115e-05)
(4.0524e-06 -2.89589e-06 -2.77786e-05)
(2.5756e-06 -2.90531e-06 -2.62237e-05)
(-0.000276829 -6.29583e-05 0.000486901)
(-0.000279871 -6.14497e-05 0.0004415)
(-1.48598e-05 -1.24467e-06 5.4034e-06)
(-1.24892e-05 -1.42348e-06 6.68067e-06)
(-4.13336e-05 -1.80797e-06 1.64871e-05)
(-3.56936e-05 -3.1234e-06 1.52951e-05)
(-4.35346e-06 -8.68006e-06 -5.39408e-06)
(-2.07281e-06 -8.57678e-06 -2.67005e-06)
(-0.00012742 2.52508e-05 0.00018396)
(-0.000110643 3.39748e-05 0.000156464)
(-0.000160205 -1.77498e-05 0.00027431)
(-0.00013998 -2.38096e-05 0.000236129)
(-0.000102865 -6.13757e-06 0.000172713)
(-8.99991e-05 -9.1943e-06 0.00014865)
(-0.000156283 9.37773e-05 0.000466671)
(-0.000216582 0.000169341 0.000652168)
(7.3989e-06 -1.18693e-05 0.000188641)
(-1.26585e-06 -4.612e-06 0.00015942)
(-0.000102148 2.75711e-05 0.000193043)
(-5.57782e-05 1.32097e-06 0.000167458)
(-0.00018011 -5.70465e-05 0.000490566)
(-0.000179797 -4.01293e-05 0.000491275)
(-0.000179658 -4.51201e-05 0.000525502)
(-0.000195404 -2.13398e-05 0.000527018)
(-0.000559952 1.78728e-06 -0.000151436)
(-0.000642553 2.49816e-06 -0.000183629)
(-2.27554e-05 -7.96784e-05 9.95793e-06)
(-2.65496e-05 -7.89424e-05 1.1924e-05)
(-2.14467e-05 -4.38751e-05 6.54988e-05)
(-2.52107e-05 -5.36648e-05 8.18406e-05)
(-2.9049e-05 -5.25593e-05 6.60956e-05)
(-2.32182e-05 -4.04621e-05 5.37561e-05)
(-1.54687e-05 -8.61463e-05 8.48782e-06)
(-1.98959e-05 -9.83539e-05 6.53325e-06)
(-2.34954e-05 -8.34767e-05 8.81935e-06)
(-2.1883e-05 -8.64845e-05 9.21272e-06)
(-2.31359e-05 -0.000128636 -1.56103e-05)
(-1.99742e-05 -0.000111411 -1.41258e-05)
(-7.64297e-06 -5.66219e-05 -3.31689e-06)
(-9.87884e-06 -5.05372e-05 -4.75773e-06)
(-6.0982e-05 -3.12389e-05 9.45496e-05)
(-5.57705e-05 -3.30649e-05 8.93503e-05)
(8.99109e-05 3.84129e-06 -0.000233624)
(9.80132e-05 -5.07005e-06 -0.000218321)
(-0.000137186 -5.95051e-05 -1.25093e-05)
(-0.00013601 -6.64953e-05 -1.47043e-05)
(-0.000298516 -4.80329e-05 0.000147026)
(-0.000320423 -5.21726e-05 0.000138382)
(-0.000291727 -7.46542e-05 -2.60611e-05)
(-0.000285101 -6.18636e-05 -3.52703e-05)
(-0.000174042 0.000193079 0.000236974)
(-0.000167897 0.000241672 0.000220065)
(-0.000249101 -4.48488e-05 1.31756e-05)
(-0.00013116 -4.67556e-05 -1.84884e-05)
(-0.000206882 -7.75332e-05 7.47269e-05)
(-0.000178239 -7.59556e-05 6.31884e-05)
(-0.000227742 -5.193e-05 5.88556e-05)
(-6.742e-05 -4.22677e-05 -7.10714e-06)
(-3.91082e-05 -2.09149e-05 6.05094e-05)
(-3.2228e-05 -1.93928e-05 5.58631e-05)
(0.000551536 -0.000216833 0.000414138)
(0.000505294 -0.000190101 0.000345276)
(0.000487438 -0.000271724 0.000227939)
(0.000459257 -0.000201049 0.000257925)
(0.000468532 -0.000233541 0.000255215)
(0.000237316 -0.000153685 0.000185654)
(0.000332389 -0.000211143 0.000216726)
(0.0002603 -0.000154949 0.000199938)
(0.000429827 -0.000194506 0.000349471)
(0.00045318 -0.000238222 0.000333242)
(0.000447108 -0.000233108 0.00028904)
(0.000346186 -0.000231379 0.000188756)
(0.000450127 -0.000281623 0.000188082)
(0.000375161 -0.000207947 0.000242205)
(0.000143203 -7.49548e-05 0.000160818)
(0.000230578 -0.000155261 0.000185503)
(0.000177881 -9.16937e-05 0.000181215)
(0.000132564 -5.97284e-05 0.00016523)
(7.46349e-05 4.37338e-05 0.000155571)
(0.000284854 0.00011143 4.37874e-05)
(0.000345876 0.000110737 9.48065e-05)
(0.000295794 7.41711e-05 0.000107101)
(0.000313173 5.90677e-05 4.62542e-05)
(0.000373479 6.2962e-05 9.69979e-05)
(0.000337186 9.89089e-05 8.88138e-05)
(0.000302956 7.41639e-05 6.62521e-05)
(9.81442e-05 5.24503e-05 9.06177e-05)
(0.000114354 6.33646e-05 8.90892e-05)
(9.2536e-05 1.08964e-05 0.000142921)
(9.6816e-05 1.63221e-05 0.000142068)
(0.000110466 8.87346e-06 0.000165225)
(9.1287e-05 4.73019e-09 0.000148356)
(0.000102126 3.25162e-05 0.000139764)
(8.18376e-05 3.43207e-05 0.000107473)
(7.85875e-05 3.70612e-05 7.94633e-05)
(7.33015e-05 1.72686e-05 9.74554e-05)
(6.79007e-05 6.82477e-06 0.000112205)
(5.10354e-05 -2.02046e-06 8.90558e-05)
(6.55385e-05 -7.22409e-06 0.000107177)
(5.62762e-05 1.52465e-05 7.61653e-05)
(4.73114e-05 1.2744e-05 6.46856e-05)
(5.13813e-05 1.08439e-05 7.374e-05)
(0.000152904 9.12388e-05 4.82527e-05)
(0.000184032 0.000101122 6.6611e-05)
(0.000188294 9.14806e-05 7.76273e-05)
(0.0001803 8.67505e-05 4.66341e-05)
(0.000112846 6.51999e-05 7.71681e-05)
(0.000129344 7.43512e-05 5.19753e-05)
(0.000138051 8.05548e-05 3.10463e-05)
(0.000140433 6.87174e-05 4.17065e-05)
(0.000122548 6.60631e-05 4.70293e-05)
(0.000268181 0.000109826 3.66283e-05)
(0.000220438 0.000103932 3.42516e-05)
(0.000285168 0.000101188 5.05302e-05)
(0.000259693 7.37509e-05 3.56884e-05)
(0.000231358 9.6458e-05 2.25375e-05)
(0.000212158 7.28719e-05 2.8352e-05)
(8.00879e-05 4.58388e-05 5.57132e-05)
(8.57801e-05 4.41619e-05 6.05685e-05)
(6.82703e-05 3.13983e-05 6.81759e-05)
(0.000103927 6.25508e-05 4.77168e-05)
(5.82342e-05 2.55501e-05 5.83002e-05)
(6.96964e-05 4.15759e-05 3.75678e-05)
(0.000115942 6.21868e-05 5.67107e-05)
(0.000152056 7.86859e-05 2.54181e-05)
(7.4783e-05 4.94064e-05 1.01934e-05)
(8.71602e-05 4.73368e-05 2.7595e-05)
(7.60239e-05 4.85076e-05 2.1916e-05)
(0.000138305 8.14709e-05 7.43492e-06)
(0.000169876 8.55525e-05 -1.35964e-05)
(0.000153924 5.98123e-05 2.34006e-05)
(0.000149713 7.35822e-05 1.10896e-05)
(0.000314392 2.82142e-05 0.000549638)
(0.000352392 5.71049e-05 0.00063901)
(0.000320342 -1.41931e-06 0.000571408)
(0.000331957 2.87904e-05 0.000587422)
(0.000355741 9.94685e-05 0.000395834)
(0.000384801 0.000104876 0.000470467)
(0.000275607 9.4776e-05 0.000387155)
(0.000301027 8.90581e-05 0.000443367)
(0.000294509 0.000105512 0.000441226)
(0.000276153 8.73477e-05 0.000453975)
(0.000391585 0.000156327 0.000506853)
(0.000328335 0.000132358 0.000380852)
(0.000374099 0.000138166 0.000474714)
(0.00023786 8.98719e-05 0.000386686)
(0.000318939 0.000115801 0.000482852)
(0.000406111 0.000129734 0.000384105)
(0.000363911 0.000134574 0.000452696)
(0.00035691 0.000131407 0.000453785)
(0.000410636 0.00013519 0.000562671)
(0.000426405 0.000169445 0.000498009)
(0.000469455 0.00018345 0.000495408)
(0.000461223 0.000191191 0.000467325)
(0.00045077 0.000158518 0.000558594)
(0.000435467 0.000163029 0.00055854)
(0.000399415 7.32492e-05 0.00046605)
(0.000511638 7.88258e-05 0.000497972)
(0.000392009 9.24651e-05 0.000479453)
(0.000303214 9.42838e-05 0.00037477)
(0.000382984 9.08754e-05 0.000467803)
(0.000418682 7.07422e-05 0.000407993)
(0.000314091 5.5992e-05 0.000306627)
(0.000338981 0.000101831 0.000367555)
(0.00036384 8.38807e-05 0.000356628)
(0.000367759 9.3959e-05 0.000348043)
(0.000493732 -4.16304e-05 0.0004327)
(0.000508529 -5.96763e-05 0.000430365)
(0.00052112 -0.000139373 0.000416904)
(0.000406832 -6.30208e-05 0.000372192)
(0.000489489 -0.000119465 0.000326716)
(0.000383838 -9.39392e-06 0.000342373)
(0.000533496 -0.000129891 0.000354827)
(0.000364646 -2.82588e-05 0.000293238)
(0.00047081 -9.95086e-05 0.000284251)
(0.000551851 -0.0002102 0.000270254)
(0.00034339 5.79919e-05 0.00035683)
(0.000343056 8.60729e-05 0.000374561)
(0.000382554 2.45226e-05 0.000311437)
(0.000379824 6.40921e-05 0.000328672)
(0.000397038 0.000142823 0.000379409)
(0.00043043 0.000148336 0.000511286)
(0.000428728 0.000146515 0.000459081)
(0.000443581 0.000127709 0.000373266)
(0.000498951 0.000162736 0.000416842)
(0.000497189 0.000189906 0.000524927)
(0.000446853 0.000157846 0.000523506)
(0.000472525 0.00015559 0.000552934)
(0.000471915 0.0001725 0.000398708)
(0.00045223 0.000159152 0.000525632)
(0.000452406 0.000164146 0.000524699)
(0.000572207 0.00020796 0.000657625)
(0.000546213 0.000195735 0.000513855)
(0.000403176 0.000117131 0.000370077)
(0.000571306 0.000180053 0.000421863)
(0.000454097 0.000104686 0.000392626)
(0.000583421 0.000147395 0.000398807)
(0.000514042 0.000178347 0.000439791)
(0.000519222 0.000163322 0.000511931)
(0.00069505 0.000261948 0.000524319)
(0.000551063 0.000187255 0.00043267)
(0.000526828 0.000160088 0.000456193)
(0.000736069 0.000259206 0.000483341)
(0.000567569 0.000245319 0.000484424)
(0.000604256 0.000209123 0.000592537)
(0.000559722 0.000181876 0.000625974)
(0.000662452 0.00022607 0.00062069)
(0.000660588 0.000231663 0.000599478)
(0.000349704 0.000139792 0.000456509)
(0.000341398 0.000130619 0.000451227)
(0.000234666 7.01207e-05 0.000425759)
(0.000338543 0.000128251 0.000489068)
(0.000425653 0.000120704 0.000632931)
(0.000389377 0.000111024 0.000581842)
(0.00037765 0.000145759 0.00049171)
(0.000397199 0.000153749 0.000511039)
(0.000380426 0.000146996 0.000559866)
(0.000361679 6.19643e-05 0.000646989)
(0.000312414 4.26198e-05 0.000579119)
(0.000366958 0.000108114 0.000607438)
(0.000349654 9.50841e-05 0.000602071)
(0.000312771 4.20047e-05 0.000506834)
(0.000423603 0.000169829 0.00053781)
(0.000448452 0.000138567 0.000626955)
(0.000400082 0.000122106 0.000610001)
(0.000385615 -5.32097e-06 0.000636868)
(0.00047511 0.000143584 0.000711269)
(0.000357044 5.88393e-05 0.000605418)
(0.000462606 0.000185436 0.000524819)
(0.000501666 0.000194457 0.000563544)
(0.000447055 0.000140507 0.00062549)
(0.000437421 0.000174693 0.000559719)
(0.00050545 0.000203591 0.000563823)
(0.000502617 0.000126617 0.000695304)
(0.00051281 0.000144192 0.00078186)
(0.000408635 4.70966e-05 0.000674467)
(0.000375 4.56591e-05 0.000614164)
(0.000406849 7.7087e-05 0.000648566)
(0.000462124 0.000129605 0.000689036)
(0.000394503 7.37764e-05 0.000607045)
(0.000513188 0.000218579 0.00060218)
(0.000512166 0.000105201 0.000749601)
(0.000592154 0.000191025 0.000851863)
(0.000281558 1.14621e-05 0.000491665)
(0.000292809 5.5071e-05 0.000500676)
(0.000357088 0.000131513 0.000558727)
(0.000375954 8.35465e-05 0.00063675)
(0.000354153 2.60822e-05 0.000587303)
(0.00043713 9.33092e-05 0.000694283)
(0.000335386 -1.23147e-05 0.000567096)
(0.000337563 3.99961e-05 0.000558666)
(0.000430632 0.000143231 0.000676999)
(0.000359326 4.57469e-05 0.000611437)
(0.000314154 3.6955e-05 0.00052719)
(0.00038247 -4.75336e-06 0.000631068)
(0.000332064 4.27081e-05 0.000557695)
(0.000353359 4.59084e-05 0.000582605)
(0.000429516 4.26985e-05 0.000701735)
(0.000335591 8.74172e-05 0.00057711)
(0.000334593 5.96723e-05 0.000564025)
(0.000426685 -5.77331e-05 0.000654074)
(0.000478567 0.000128732 0.000753475)
(0.000411457 -2.15938e-05 0.000692815)
(0.000523768 6.55257e-05 0.000856428)
(0.000399841 1.23763e-05 0.000668057)
(0.000420116 3.47866e-05 0.000684889)
(0.000529271 0.000159822 0.00076859)
(0.000424302 5.35875e-05 0.000678297)
(0.000484881 3.52436e-05 0.000772032)
(0.000522447 4.51358e-05 0.000856141)
(0.000532444 1.92828e-05 0.00085474)
(0.000420082 3.57302e-05 0.000673213)
(0.00047495 4.16085e-05 0.000753663)
(0.000424698 1.53415e-05 0.000674482)
(0.000484431 4.93102e-05 0.000766738)
(0.000546799 0.000175344 0.000685482)
(0.000535233 0.00019214 0.000613577)
(-2.10064e-05 -4.91161e-05 0.000160214)
(0.000565462 0.000153568 0.000775039)
(0.000491663 0.000138942 0.000664404)
(0.000614971 0.000227227 0.000664722)
(0.00057382 0.000221155 0.000600331)
(0.000609323 0.000214285 0.000674433)
(-2.52643e-05 -4.87916e-05 0.000159655)
(0.000543474 0.000172722 0.000711084)
(0.000563053 0.000207795 0.000657223)
(0.000610164 0.000228602 0.000685589)
(0.000555445 0.000167896 0.000764668)
(0.00062454 0.000177833 0.000912075)
(-2.29046e-05 -4.85725e-05 0.000156933)
(0.000468297 7.16988e-05 0.000727949)
(0.000433227 6.28034e-05 0.000710013)
(0.000466771 9.62365e-05 0.000705633)
(0.000526409 5.95628e-05 0.000795239)
(0.000463865 0.000106651 0.000702791)
(-2.53745e-05 -3.80848e-05 0.000159947)
(0.000575471 0.000235578 0.000663092)
(0.000594356 0.000121286 0.000836905)
(0.000681851 0.000216696 0.000929861)
(0.000655457 0.000218719 0.000773693)
(0.000714615 0.000252115 0.000648583)
(0.000771757 0.000284976 0.000655805)
(0.000645134 0.000190061 0.000833078)
(0.000603614 0.000174841 0.00074607)
(0.000633003 0.000257283 0.000626508)
(0.000666777 0.00023706 0.000678965)
(0.00064196 0.000203693 0.000759255)
(0.000711168 0.000244678 0.000809572)
(0.000736643 0.000282839 0.000776745)
(0.000657595 0.000204628 0.000836794)
(0.000684463 0.000171191 0.000940527)
(0.000561224 0.000136991 0.000783488)
(0.00062641 0.000139699 0.000974563)
(0.000509359 0.000104295 0.000752422)
(0.000587238 8.10736e-05 0.000888441)
(0.000730211 0.000241175 0.000925756)
(0.000606139 0.000195804 0.000766693)
(0.000645388 0.000168817 0.000920915)
(0.000538004 8.99801e-05 0.000867952)
(0.000557274 0.000149664 0.000789158)
(0.000729357 0.000132473 0.00102363)
(0.000640329 0.000146333 0.000993984)
(0.00059093 6.60044e-05 0.00094875)
(0.000592176 2.03896e-05 0.000943318)
(0.000474716 2.9213e-05 0.000787824)
(0.000467156 6.52534e-05 0.000733624)
(0.00060185 0.000120024 0.000870961)
(0.00061481 0.000127014 0.000960651)
(0.000577248 2.7862e-05 0.000904282)
(0.000593511 3.89337e-05 0.000934717)
(0.000602679 -3.86796e-05 0.000936807)
(0.000583849 3.95813e-05 0.000893929)
(0.000669224 0.000132063 0.00097165)
(-3.13482e-05 -4.31838e-05 0.000168334)
(0.00050149 -1.85736e-06 0.000821314)
(0.000456331 5.66279e-05 0.000718727)
(0.000649895 0.000151218 0.000957503)
(0.000677757 0.000190819 0.00101546)
(0.000565538 -1.48712e-06 0.000944952)
(0.000704748 6.37902e-05 0.00111278)
(0.000526638 4.22052e-05 0.000828549)
(0.000649975 3.05057e-05 0.000997128)
(0.000519715 5.34819e-05 0.00082243)
(0.000500476 -1.77903e-05 0.000762666)
(0.00064258 -8.97152e-05 0.000952843)
(0.000689892 3.31406e-05 0.00109348)
(0.000690529 1.89281e-06 0.00108261)
(0.000366882 -5.09527e-05 0.000533689)
(0.000288958 1.97692e-05 0.00044812)
(0.00032371 9.54256e-06 0.000464673)
(0.000313009 9.69808e-06 0.000478843)
(0.000225062 4.05043e-05 0.00040224)
(0.000299041 2.79161e-05 0.000463108)
(0.000382211 2.9257e-06 0.000496582)
(0.000299665 4.64554e-05 0.000468236)
(0.000348834 4.47119e-05 0.000619666)
(0.000350457 6.16548e-05 0.000594206)
(-2.31171e-05 -4.18228e-05 0.000153512)
(-2.6785e-05 -4.38556e-05 0.00016041)
(-2.47851e-05 -4.05215e-05 0.00014859)
(-2.62676e-05 -3.68437e-05 0.000149452)
(0.000391396 3.30435e-05 0.000612325)
(0.000354224 7.50808e-05 0.000561323)
(0.000421695 1.46668e-05 0.00056577)
(0.000378302 3.19479e-05 0.000508512)
(0.000396658 -1.29853e-05 0.000512158)
(0.000393348 4.0185e-06 0.000483417)
(-2.97097e-05 -3.62346e-05 0.000154828)
(0.00041511 1.79929e-06 0.000534514)
(-3.50324e-05 -2.8907e-05 0.000164904)
(-3.01249e-05 -3.46156e-05 0.000155919)
(0.000443619 1.21271e-05 0.000222667)
(0.000440899 1.60561e-05 0.000270026)
(0.000420415 -1.38833e-05 0.000256806)
(-3.34649e-05 -3.44596e-05 0.000153946)
(-2.65182e-05 -3.83396e-05 0.000164578)
(-2.59141e-05 -4.18785e-05 0.000161121)
(-3.23174e-05 -3.37816e-05 0.000175013)
(-3.38586e-05 -4.23209e-05 0.00018262)
(-2.97015e-05 -3.03063e-05 0.000166628)
(-2.85649e-05 -2.62578e-05 0.00015943)
(-3.46626e-05 -3.44986e-05 0.000159018)
(0.000392296 6.33878e-05 7.38038e-05)
(0.000452891 6.39441e-05 0.000138307)
(0.000372662 3.2982e-05 8.18146e-05)
(0.000358155 6.62171e-05 6.05708e-05)
(0.000373737 4.69568e-05 8.39948e-05)
(0.000434634 1.12491e-05 0.000127038)
(0.000420484 1.25707e-05 0.000188039)
(0.000447227 -2.99399e-05 0.000196719)
(0.000440754 8.44946e-07 0.000163365)
(0.000420773 -9.65671e-08 0.000204631)
(0.000409777 2.89924e-05 9.0979e-05)
(0.000427507 -8.04219e-06 9.75205e-05)
(0.0004347 -9.05491e-06 0.000384288)
(0.00041257 5.64264e-06 0.00041882)
(0.000400068 -2.31605e-06 0.00043615)
(0.000361875 5.6639e-06 0.000419237)
(0.000392896 3.06941e-06 0.000459735)
(0.000330328 2.45223e-05 0.000427448)
(0.000461516 -4.56916e-06 0.000414261)
(0.000467743 -2.53808e-05 0.000354914)
(0.000471125 -1.4787e-05 0.000340367)
(0.000411685 -4.6174e-06 0.0003532)
(0.000392293 -2.28512e-05 0.000443318)
(0.000407431 -1.4629e-05 0.0003983)
(0.000433287 2.21628e-05 0.000513427)
(0.000499757 -3.52107e-05 0.000249168)
(0.000461927 -5.13577e-05 0.000333463)
(0.000472298 -5.24589e-05 0.000280474)
(0.000486007 -3.4111e-05 0.000353679)
(0.000520136 -8.62618e-05 0.000230061)
(0.000459867 -4.9083e-05 0.00038596)
(0.000428149 -4.33994e-05 0.000448694)
(0.000467721 -7.09494e-05 0.00043)
(0.000471588 -1.54876e-05 0.000518978)
(0.000552435 -0.000101382 0.00040992)
(0.000511634 -0.000101536 0.000338367)
(0.000523233 -9.14941e-05 0.000274788)
(0.000508575 -6.8453e-05 0.000344537)
(0.00045479 -4.89068e-05 0.000178781)
(0.000451493 -3.97845e-05 0.000143116)
(0.000483514 -4.2929e-05 0.00018345)
(0.000330262 7.46115e-05 3.09011e-05)
(0.000340444 5.71717e-05 5.77007e-05)
(0.000293685 8.32084e-05 9.73827e-06)
(0.000318025 6.96309e-05 2.8099e-05)
(0.000361704 3.14285e-05 4.99814e-05)
(0.00040675 -1.02386e-06 7.25412e-05)
(0.000334329 4.56895e-05 4.91149e-05)
(0.000225097 8.19114e-05 -1.659e-06)
(0.000307468 8.90989e-05 1.49098e-05)
(0.000142036 6.94581e-05 3.87852e-05)
(0.00015284 6.66379e-05 1.50577e-05)
(0.000254812 9.65721e-05 8.25832e-06)
(0.000268849 7.16802e-05 4.38133e-05)
(0.000247304 3.9804e-05 -1.59592e-05)
(0.000290036 4.86342e-05 2.84827e-05)
(0.000349025 3.7907e-05 1.97254e-05)
(0.000245338 7.64583e-05 6.62279e-06)
(0.000234898 5.47262e-05 1.13692e-05)
(0.000312934 5.4494e-05 1.78027e-05)
(0.000584347 -0.00013596 0.000195988)
(0.000568863 -0.000139662 0.000350026)
(0.000555764 -0.000136865 0.000277247)
(0.000581344 -0.000126057 0.000354567)
(0.000462738 -2.92007e-05 0.000111647)
(0.000505524 -0.00010223 0.000175269)
(0.000464997 -5.30411e-05 0.000153149)
(0.000469819 -7.41328e-05 0.000156377)
(0.000420001 -1.68014e-05 6.91934e-05)
(0.000455542 -5.81845e-05 0.000103879)
(0.000541865 -0.000109861 0.000139947)
(0.000586452 -0.000128773 0.000175237)
(0.000614137 -0.000196566 0.000245012)
(0.000576501 -0.000135983 0.000167845)
(0.000551377 -0.000144839 0.000197693)
(0.000385141 1.66005e-05 4.1913e-05)
(0.000396536 -7.88796e-06 4.12458e-05)
(0.000426446 -5.72681e-05 9.76506e-05)
(0.000398374 -7.96791e-06 7.05937e-05)
(0.000414204 -3.53616e-05 6.00288e-05)
(0.000327568 3.36006e-05 4.58584e-05)
(0.000374561 -4.71303e-06 4.27313e-05)
(0.000551347 -0.000101849 0.000102051)
(0.000581915 -0.000157033 0.000119453)
(0.000601782 -0.000157574 0.000110737)
(0.000465395 -6.94785e-05 0.000111111)
(0.000428419 -3.22329e-05 0.000123831)
(0.000477235 -6.90955e-05 9.03117e-05)
(0.000307516 5.42238e-05 0.000525475)
(0.000326206 3.5216e-05 0.00054218)
(0.000369027 -1.56162e-05 0.000578805)
(0.000367728 7.24649e-06 0.000570982)
(0.000314134 7.31431e-05 0.000530247)
(0.00035588 7.04436e-06 0.000538728)
(0.00045514 -2.70948e-05 0.000678779)
(0.000325936 2.79136e-05 0.00053295)
(0.000357514 1.47505e-05 0.000552207)
(0.000413997 2.51434e-05 0.000637233)
(0.000405538 -1.33505e-05 0.000561928)
(0.000373014 1.04051e-05 0.00052583)
(0.000417009 1.59113e-05 0.000596769)
(0.000484433 -1.87666e-05 0.000687925)
(0.000491 1.91193e-05 0.000808361)
(0.000368544 4.85584e-05 0.000590441)
(0.000422285 4.86815e-05 0.000683207)
(0.0004051 5.13167e-05 0.000677953)
(0.000433468 2.17499e-06 0.000665191)
(0.000574875 -6.93288e-05 0.000812296)
(0.000531763 -0.000117168 0.000709194)
(0.000440336 6.19626e-05 0.000716613)
(0.000460563 -1.59068e-05 0.000677856)
(0.000413539 4.02545e-06 0.000581493)
(0.000466979 5.47591e-06 0.00066392)
(0.000455696 -4.1523e-05 0.000566767)
(0.000413256 -3.27798e-05 0.000491411)
(0.000463448 -1.49697e-05 0.0005895)
(-3.62084e-05 -2.99915e-05 0.000160896)
(0.000530554 -0.000112954 0.000632205)
(0.00050157 -8.12413e-05 0.000534174)
(0.000544935 -3.1979e-05 0.0006618)
(0.000431062 -2.55632e-05 0.000615278)
(0.000500793 -5.91467e-05 0.000633427)
(0.000568551 -4.61866e-05 0.000742186)
(0.000519217 -0.000109694 0.000521386)
(0.000512352 -0.000102037 0.000435908)
(0.000497176 -4.55083e-05 0.000541288)
(0.000635213 -4.26794e-05 0.000968408)
(0.000443988 3.76e-06 0.000678775)
(-3.63564e-05 -2.58218e-05 0.000148716)
(0.000474322 -2.50296e-05 0.000676293)
(0.000548441 -1.59727e-05 0.000799989)
(0.000620213 -9.1678e-05 0.000870445)
(0.000635085 -0.000136312 0.00080359)
(0.000466879 -6.94758e-05 0.000579443)
(-4.14726e-05 -2.12641e-05 0.000160472)
(0.000580086 -0.000213886 0.00053356)
(0.000603022 -8.43916e-05 0.000721446)
(0.000610498 -0.000104919 0.000827188)
(0.000541252 -0.000112144 0.000678749)
(0.00060098 -7.15148e-05 0.000793663)
(0.000666047 -0.000149536 0.000771896)
(0.00059825 -0.000137894 0.00061577)
(0.000729172 -0.000250476 0.00078295)
(0.000653355 -0.000261459 0.000603488)
(0.000680377 -0.000180351 0.000758863)
(0.000480289 1.35209e-05 0.000751143)
(0.000485226 -4.22039e-05 0.000707761)
(0.000596632 -5.76826e-05 0.000860569)
(0.000639305 -6.20251e-05 0.000953457)
(0.000628175 -0.00016051 0.000868373)
(0.000576936 1.62932e-05 0.000865335)
(0.000654652 -0.000117527 0.000974582)
(0.000619106 5.24139e-05 0.000964688)
(0.000580502 -6.8399e-05 0.000855598)
(0.000571049 -0.000104757 0.000791267)
(0.000681339 -0.000142554 0.000935257)
(0.000564542 -0.000121707 0.000771886)
(0.000619104 -0.000177686 0.00074269)
(0.000700188 -0.000160177 0.000883433)
(0.000798866 -0.000250023 0.000944307)
(0.000615833 -0.000243835 0.000692296)
(0.000733775 -0.0003501 0.00062573)
(0.00074291 -0.000197569 0.000833738)
(0.000616173 -0.000179058 0.000418897)
(0.000513245 -0.000174835 0.000445249)
(0.000600626 -0.000191109 0.000452967)
(0.000583694 -9.56728e-05 0.000594451)
(0.000640097 -0.000174585 0.000595478)
(0.000641032 -0.000214979 0.000412589)
(0.000590638 -0.000204583 0.000364246)
(0.00065791 -0.000214518 0.000256493)
(0.000595607 -0.00016133 0.000350245)
(0.000688266 -0.000251916 0.000422368)
(0.000701965 -0.000296297 0.000293293)
(0.000683798 -0.000244403 0.000393721)
(0.000711468 -0.000264012 0.00059735)
(-4.41889e-05 -1.70996e-05 0.000158714)
(0.000683941 -0.000311089 0.000441472)
(0.000688855 -0.000232838 0.000586475)
(0.000811887 -0.000379223 0.00070084)
(0.000794285 -0.000407487 0.000475976)
(0.00074315 -0.000276827 0.000644913)
(-4.74766e-05 -1.24154e-05 0.000160022)
(0.000773371 -0.000364325 0.000478852)
(0.000812671 -0.000377477 0.000348311)
(-3.59797e-05 -3.43426e-05 0.00018311)
(0.000707834 -0.000274564 0.000451689)
(0.000639145 -0.000214055 0.00026471)
(-4.00287e-05 -2.70612e-05 0.000186357)
(0.000649407 -0.00019158 0.000224165)
(0.000633587 -0.000206415 0.000231273)
(-3.42693e-05 -3.41721e-05 0.000168423)
(0.00070613 -0.000202895 0.000176878)
(-3.74186e-05 -1.67286e-05 0.000169774)
(-4.07062e-05 -2.86415e-05 0.000183212)
(0.000727655 -0.000323621 0.000247779)
(0.000678361 -0.000243259 0.00022159)
(-4.18604e-05 -2.72219e-05 0.000182868)
(0.00067374 -0.000248188 0.000277853)
(0.000404624 -0.000242564 0.00022098)
(-4.53929e-05 -1.98049e-05 0.000178164)
(0.000467618 -0.000291179 0.000178262)
(0.000373765 -0.000235039 0.000175559)
(-4.44161e-05 -2.04528e-05 0.000182286)
(0.000273216 -0.000177004 0.000182157)
(0.000341611 -0.000227962 0.000183206)
(-4.83054e-05 -1.30756e-05 0.000190986)
(0.0002471 -0.000169376 0.00015018)
(0.000299763 -0.000173216 0.000229062)
(-3.71491e-05 -1.9632e-05 0.000164322)
(-3.36619e-05 -1.74161e-05 0.000151565)
(0.000345193 -0.000213261 0.000177815)
(-3.92865e-05 -2.38025e-05 0.000154027)
(-4.11412e-05 -1.82307e-05 0.000168301)
(0.000170101 -0.000104368 0.000150531)
(-3.95951e-05 -1.58569e-05 0.000152893)
(-4.35128e-05 -1.32412e-05 0.000166685)
(0.000230012 -0.000152017 0.000170837)
(-4.21099e-05 -1.26328e-05 0.00015106)
(0.000156281 -9.89897e-05 0.000131807)
(8.56487e-05 -4.16313e-05 0.000100545)
(0.000144179 -7.91784e-05 0.000151328)
(0.000100813 -4.12556e-05 0.000120564)
(6.90651e-05 -2.8096e-05 8.82191e-05)
(0.000113568 -5.00422e-05 0.000129223)
(8.02066e-05 -4.72114e-05 8.40079e-05)
(0.000171953 -9.04212e-05 0.00017173)
(0.000210847 -0.000119748 0.000169398)
(0.000224024 -0.000188926 8.6584e-05)
(0.000360289 -0.000265004 0.000117737)
(0.000254962 -0.000174523 0.000141856)
(9.87192e-05 -7.49697e-05 6.875e-05)
(0.000214485 -0.000170407 0.000104508)
(0.000154638 -0.000106383 0.000116918)
(0.000111476 -7.4249e-05 0.000104119)
(0.000153862 -9.72741e-05 0.000134939)
(0.00020399 -0.00013351 0.000130876)
(4.55379e-05 -5.22643e-05 2.22234e-05)
(0.000110103 -7.304e-05 9.20447e-05)
(8.07733e-05 -7.80183e-05 5.38533e-05)
(4.28941e-05 4.33805e-05 9.06545e-05)
(4.87344e-05 2.06358e-05 9.3789e-05)
(4.83645e-05 4.29341e-05 0.00010071)
(5.99114e-05 5.53052e-05 0.00011044)
(7.37742e-05 4.1473e-05 0.00011475)
(3.55849e-05 5.0534e-05 7.2928e-05)
(-2.55118e-05 -3.87306e-05 0.000144877)
(2.30894e-05 6.74315e-05 7.22139e-05)
(2.22253e-05 4.31248e-05 3.9261e-05)
(4.7717e-05 4.37915e-05 7.49123e-05)
(2.56711e-05 4.2775e-05 3.77854e-05)
(6.55664e-05 -7.77795e-06 0.000100459)
(-2.83265e-05 -3.54384e-05 0.000147227)
(3.32015e-05 1.15732e-05 6.68303e-05)
(6.09604e-05 -3.54375e-06 9.80708e-05)
(4.80763e-05 -1.85839e-06 7.31473e-05)