/*--------------------------------*- C++ -*----------------------------------*\
  =========                 |
  \\      /  F ield         | OpenFOAM: The Open Source CFD Toolbox
   \\    /   O peration     | Website:  https://openfoam.org
    \\  /    A nd           | Version:  7
     \\/     M anipulation  |
\*---------------------------------------------------------------------------*/
FoamFile
{
    version     2.0;
    format      ascii;
    class       volScalarField;
    location    "3.5";
    object      p;
}
// * * * * * * * * * * * * * * * * * * * * * * * * * * * * * * * * * * * * * //

dimensions      [0 2 -2 0 0 0 0];

internalField   nonuniform List<scalar> 
382612
(
0.00218546
0.00204028
0.0020778
0.00208801
0.00190664
0.00236711
0.0022072
0.0020397
0.00187419
0.00180359
0.00190906
0.00189466
0.00190894
0.00198999
0.00200394
0.00218125
0.00203255
0.00217605
0.00211118
0.002143
0.00217344
0.00221388
0.0022546
0.0023363
0.0023089
0.00227641
0.00224859
0.00282562
0.00288526
0.00293442
0.00297514
0.00275519
0.0027432
0.00272874
0.00270602
0.00258761
0.00216007
0.00217304
0.00226409
0.00231151
0.00235437
0.00239356
0.00235964
0.00233541
0.00230462
0.00226918
0.00218188
0.00220161
0.00223049
0.00225505
0.0023797
0.00234821
0.00231327
0.00227696
0.00221467
0.00212742
0.00213261
0.00214391
0.00223237
0.0021758
0.0022709
0.00226116
0.00229625
0.00276154
0.00228559
0.00206888
0.00245944
0.00264412
0.00275106
0.0029427
0.00296979
0.00297587
0.00297978
0.00325911
0.00324565
0.00322744
0.00319386
0.00305467
0.00276466
0.00291477
0.00297269
0.00301013
0.0030363
0.00342716
0.00343261
0.00343615
0.00339988
0.00315177
0.00239692
0.00259313
0.0026431
0.00266808
0.00268477
0.00286379
0.00287728
0.00289217
0.00287218
0.00269208
0.00218756
0.00219324
0.00225812
0.00228776
0.00231948
0.00235525
0.0022443
0.0022301
0.00221457
0.00220672
0.00203088
0.00206775
0.00209998
0.00212512
0.00236041
0.00232217
0.00228244
0.0022447
0.00217423
0.00190058
0.00194399
0.00198463
0.00201262
0.00203259
0.00220089
0.00215927
0.00211809
0.00207829
0.00197938
0.00175688
0.00191478
0.00213635
0.00217744
0.00219662
0.00220641
0.00242913
0.00243473
0.00244255
0.00244231
0.00250425
0.00246706
0.00239495
0.00237349
0.00235541
0.00234205
0.00194745
0.00193161
0.00191237
0.00189089
0.00206407
0.00209718
0.00212271
0.00214266
0.00215907
0.0021384
0.00211665
0.00209942
0.00212691
0.00204423
0.00198849
0.00199116
0.00200439
0.00201635
0.00193129
0.00207007
0.00208511
0.00179163
0.00185108
0.00187024
0.00219471
0.0024198
0.00174324
0.00178672
0.00209041
0.00178012
0.00183441
0.0018107
0.00178898
0.00179531
0.00180686
0.00181277
0.00244258
0.00245548
0.00247496
0.00248806
0.0024176
0.00182795
0.00181873
0.00181776
0.0018244
0.00183121
0.00230597
0.00232589
0.00235607
0.00238447
0.00237792
0.00202377
0.00220547
0.00223904
0.00224303
0.0022411
0.00224132
0.0019589
0.00196014
0.00196408
0.00197644
0.00153062
0.00154325
0.00155727
0.00156387
0.00205594
0.00204872
0.00203934
0.00203229
0.00206145
0.00153212
0.00151923
0.00203492
0.00193773
0.00152423
0.00176509
0.00199112
0.00166313
0.00196987
0.00194367
0.00168767
0.00146357
0.00182718
0.00190994
0.00175356
0.00156366
0.00180248
0.00192914
0.00195755
0.00206548
0.00200303
0.0018664
0.00177616
0.00205401
0.00194601
0.00201859
0.00210935
0.00208324
0.00205732
0.00218488
0.00223788
0.0020306
0.0019912
0.00204697
0.0020629
0.00208508
0.00210964
0.00235811
0.00235069
0.00233557
0.00228594
0.00263317
0.00261095
0.00259228
0.00257426
0.0031401
0.00312609
0.00311173
0.00307622
0.00289437
0.00271211
0.00262042
0.00265942
0.00268308
0.00269181
0.00270153
0.00231053
0.0023102
0.00230074
0.00228162
0.00229662
0.00287572
0.00285236
0.00286432
0.00287885
0.00289041
0.0027508
0.00273353
0.00270657
0.00268433
0.00269843
0.00303573
0.00300648
0.00300919
0.00302624
0.00304038
0.00331857
0.0033171
0.00331362
0.00329673
0.00319394
0.00308772
0.00325251
0.00329469
0.00331422
0.00332584
0.00384093
0.00384519
0.00384962
0.00381512
0.00354736
0.00264999
0.00271838
0.00274185
0.00276957
0.00279303
0.00283925
0.00282686
0.00280986
0.00277499
0.00261311
0.00232768
0.00245095
0.00249898
0.00253371
0.00255735
0.00296399
0.00298089
0.00300588
0.00300299
0.00282865
0.00187126
0.00191932
0.00193713
0.00196426
0.00198919
0.00224366
0.00229669
0.00231968
0.0023377
0.00234991
0.00210648
0.00208273
0.00205225
0.00202758
0.0019696
0.00258808
0.00267366
0.00266379
0.00263401
0.00261101
0.00178526
0.00176903
0.00174846
0.00173676
0.00172828
0.0023926
0.00237946
0.00234947
0.00231725
0.00229525
0.00164553
0.0016419
0.00163733
0.00164785
0.00172303
0.00176301
0.00171964
0.00171895
0.00173208
0.00174368
0.00211772
0.00213866
0.00216807
0.00220205
0.00225928
0.00173895
0.00164587
0.00163516
0.00164168
0.00164672
0.00213862
0.00215356
0.00217531
0.0021972
0.00219568
0.00194894
0.00206153
0.00207439
0.00207823
0.00207627
0.00207436
0.0018984
0.00189851
0.00189941
0.00190658
0.00166544
0.00166602
0.00167013
0.00167165
0.00198063
0.00198107
0.00198019
0.00197907
0.00198632
0.00167782
0.00189185
0.00183726
0.00182863
0.0018301
0.00183066
0.00172567
0.00183654
0.00205896
0.00199919
0.00197562
0.00196192
0.00195252
0.00186203
0.00186496
0.00186732
0.00186552
0.00202754
0.00202449
0.0020195
0.00201563
0.00202919
0.00203139
0.00203424
0.00203555
0.0018999
0.00190456
0.00190669
0.00190618
0.00202794
0.00203579
0.00204534
0.00205601
0.00209088
0.001902
0.00203905
0.00207491
0.00200952
0.00169661
0.00193598
0.00194253
0.00169447
0.00164405
0.00193344
0.00193518
0.00161434
0.00210091
0.00213356
0.00206591
0.00199066
0.00185589
0.00202858
0.00179115
0.00181946
0.00181275
0.00194084
0.00203603
0.00197946
0.00196535
0.00196206
0.00196117
0.00194675
0.0019436
0.00193899
0.00193988
0.00196839
0.00216316
0.00214939
0.00213634
0.00213106
0.0021307
0.00212791
0.00213129
0.00213828
0.00215351
0.00219532
0.00205128
0.00206044
0.00205725
0.0020555
0.00205191
0.00204951
0.00203372
0.00203196
0.00202963
0.00202964
0.00188469
0.00188837
0.00189005
0.0018898
0.00198672
0.00198922
0.00199211
0.00199463
0.00200559
0.00187257
0.00202238
0.00199182
0.00198599
0.0019822
0.00197865
0.00194466
0.00197915
0.00195808
0.0019353
0.00193712
0.00194187
0.00194437
0.00206353
0.00206273
0.00206043
0.00205859
0.00207061
0.00218234
0.00218717
0.0021813
0.00217735
0.00217619
0.00210391
0.0021034
0.00210394
0.00211181
0.00214869
0.00216204
0.00214132
0.00213541
0.00213148
0.00212875
0.00201994
0.00201809
0.00201551
0.0020144
0.00205542
0.00205225
0.00204715
0.00204342
0.00204831
0.00205118
0.00205469
0.00205718
0.00203826
0.00203793
0.00203852
0.00203807
0.00216016
0.0021555
0.00214894
0.00214511
0.00216493
0.00205528
0.00206342
0.00208705
0.00212424
0.00197151
0.00202683
0.00205102
0.00195639
0.00177354
0.00196662
0.00201467
0.0018645
0.00216802
0.00212628
0.00208826
0.00211508
0.00202218
0.00205685
0.00211189
0.00206034
0.0021356
0.00207042
0.00204005
0.00201235
0.0020105
0.00201459
0.0020175
0.00212801
0.00212536
0.00212059
0.00211476
0.00211618
0.00220616
0.00220723
0.00220516
0.00220435
0.00220419
0.00216601
0.00216676
0.00216719
0.00216856
0.00218277
0.00225056
0.00224342
0.00224299
0.00224241
0.00224195
0.00223804
0.00223191
0.00222336
0.00221506
0.00221891
0.00212664
0.00210915
0.0021054
0.00210161
0.00209745
0.00219933
0.0021932
0.00218528
0.00217625
0.00217357
0.00210262
0.00207183
0.00207075
0.00207312
0.00207285
0.00207193
0.00206958
0.00206734
0.00206459
0.00206815
0.00208921
0.00208999
0.00209142
0.00209262
0.00206536
0.00206589
0.00206662
0.00206642
0.00206728
0.00209632
0.00210733
0.00208209
0.00209688
0.00211915
0.00199329
0.00202891
0.00209233
0.00208594
0.00215012
0.00210968
0.00207367
0.00212487
0.00199472
0.00201079
0.00212203
0.00218128
0.00208166
0.00205785
0.00210634
0.0021048
0.00214038
0.002157
0.00215367
0.00209034
0.00200976
0.00201159
0.00201684
0.00202004
0.00202171
0.00215544
0.00215616
0.00215887
0.00216543
0.00217163
0.00222366
0.00222673
0.00222456
0.00222367
0.00222358
0.00218453
0.00218087
0.0021751
0.00216842
0.00217274
0.00226102
0.00227538
0.00227949
0.00228063
0.0022812
0.00234304
0.00234187
0.0023416
0.00234042
0.0023226
0.00226103
0.00226116
0.00226756
0.00227479
0.00227961
0.00235587
0.00235541
0.0023542
0.00234873
0.00233166
0.0022867
0.00229455
0.00229994
0.00230372
0.00230591
0.00217344
0.00217052
0.00216602
0.00215847
0.00214198
0.00209636
0.00208364
0.00209287
0.00209605
0.0020953
0.00209329
0.00210866
0.00210628
0.00210283
0.00209926
0.00214875
0.00215204
0.00215697
0.00216315
0.00211266
0.00211054
0.00210608
0.00209761
0.00208081
0.00213696
0.00221503
0.00223839
0.00224681
0.0022541
0.0022602
0.00227494
0.00226747
0.00226023
0.00225326
0.00222499
0.00212771
0.00208661
0.00211442
0.00212228
0.00212779
0.00213414
0.00218492
0.00217354
0.0021608
0.00215126
0.00218579
0.00219854
0.00220942
0.00221748
0.00218385
0.00217252
0.00216142
0.00214599
0.00209521
0.00215537
0.00222698
0.00213929
0.00208943
0.00216113
0.00223597
0.00215102
0.00208473
0.00213654
0.00220034
0.0021235
0.00216145
0.00225369
0.00221345
0.00209674
0.00216933
0.00232905
0.00248222
0.00222791
0.0021744
0.00237801
0.00206665
0.00205412
0.00199204
0.00190391
0.00170344
0.00186915
0.00190326
0.00177521
0.00178209
0.00193466
0.00198547
0.00185601
0.00184912
0.00199962
0.00196267
0.00173899
0.00199002
0.0019474
0.00202629
0.00200467
0.00210677
0.00205426
0.00203901
0.0020347
0.00203337
0.00201354
0.00201553
0.00202119
0.00203429
0.00204732
0.00211795
0.00210952
0.00209963
0.00209473
0.00209273
0.00195165
0.00195108
0.00194908
0.00194428
0.00193955
0.00196605
0.00193751
0.00192623
0.00192264
0.00192177
0.00199282
0.00199325
0.00199545
0.00200125
0.00200961
0.00205611
0.00204952
0.00204741
0.00204843
0.00204945
0.00210498
0.00210368
0.00209968
0.0020924
0.0020872
0.00215806
0.00217273
0.00218396
0.00218777
0.00218869
0.00228508
0.00228304
0.00228097
0.00227872
0.00227004
0.00233022
0.00234445
0.00234891
0.00235153
0.00235308
0.00243291
0.00242962
0.00242499
0.0024174
0.0023969
0.0024359
0.00246322
0.00247404
0.00247961
0.00248294
0.00238506
0.00237793
0.00236805
0.00235823
0.00234672
0.00236629
0.00239882
0.00241064
0.00241544
0.0024179
0.00235187
0.00235056
0.00234679
0.00233724
0.0023053
0.00237002
0.0024214
0.00243649
0.00243937
0.00243904
0.00221902
0.002207
0.00219337
0.00218427
0.00218512
0.00220533
0.00222055
0.00223438
0.00220911
0.00219644
0.00218251
0.0021652
0.00212495
0.00218885
0.00220563
0.00221589
0.00222848
0.00223896
0.00232293
0.00232044
0.00231577
0.00230861
0.00229204
0.00226492
0.00230707
0.00232085
0.00232965
0.00233654
0.00221339
0.00220063
0.00218671
0.00217842
0.00212707
0.00214137
0.00215578
0.00217011
0.00215163
0.00214079
0.00212991
0.00211781
0.00214858
0.00215417
0.00216362
0.0021725
0.00231161
0.00231268
0.00231174
0.00230222
0.00226707
0.00214029
0.00208914
0.00209148
0.00214147
0.00216141
0.00208569
0.00214307
0.00224891
0.00225258
0.00214189
0.00215521
0.00232313
0.00218347
0.0021056
0.00216518
0.00221065
0.00222678
0.00211913
0.00219352
0.00235269
0.00213997
0.00207914
0.00205823
0.00209633
0.0017739
0.00191417
0.00190925
0.0017071
0.0018868
0.00201493
0.00203559
0.00207802
0.00235451
0.00244011
0.00240613
0.00235743
0.00225935
0.00213347
0.00199404
0.00184604
0.00167278
0.00149649
0.00141165
0.00141978
0.00142542
0.00142463
0.0014221
0.00161271
0.00161138
0.00161217
0.00162024
0.00163416
0.0017243
0.0017414
0.00175176
0.00175374
0.00175301
0.00189551
0.00189308
0.00189128
0.00189372
0.00189468
0.00193614
0.00196379
0.00196315
0.00196047
0.00195934
0.00197043
0.00197085
0.00196839
0.00195845
0.00192938
0.00209693
0.00210076
0.0021012
0.00210361
0.00210618
0.00218679
0.00218633
0.00218688
0.00218612
0.00216062
0.00216286
0.0021955
0.00220826
0.00221282
0.0022138
0.00229509
0.0022898
0.00228326
0.00227793
0.00227391
0.00231645
0.0023441
0.00235865
0.00236551
0.00236821
0.00249646
0.00249204
0.00248726
0.00248126
0.00245513
0.00251147
0.00254282
0.0025512
0.00255653
0.00256083
0.00250614
0.00249853
0.00248823
0.00247611
0.00245021
0.00245498
0.00249223
0.00250397
0.00250918
0.00251181
0.00237903
0.00236859
0.00235566
0.00234589
0.00234406
0.00241067
0.00243423
0.00244345
0.00245082
0.00245654
0.00241279
0.00241163
0.00240854
0.00240022
0.00237476
0.0024065
0.00241171
0.0024176
0.00242341
0.00242776
0.0023065
0.00230436
0.00230103
0.0022977
0.00229994
0.0022004
0.00220309
0.00220858
0.00221385
0.00221727
0.0022034
0.00220008
0.00219662
0.00219424
0.0021972
0.00210552
0.00205519
0.00205667
0.00206321
0.00206939
0.00207515
0.00211656
0.00210981
0.00210178
0.00209743
0.00214146
0.00214581
0.00215286
0.00215882
0.00212407
0.00211735
0.00211059
0.00210155
0.0020856
0.00214214
0.00215043
0.00210247
0.00209234
0.00212905
0.00210221
0.00206417
0.00210219
0.0021696
0.00226068
0.00212978
0.00201455
0.0019553
0.00202194
0.00202888
0.00201915
0.00201917
0.00194352
0.00197468
0.00200457
0.00200904
0.00206954
0.00204817
0.00207656
0.00213734
0.00202127
0.00202558
0.00205071
0.00204852
0.00189483
0.00214337
0.00231252
0.0024483
0.00250041
0.00245181
0.00230166
0.00208261
0.00183377
0.00159808
0.00136256
0.00115507
0.00108386
0.00109635
0.00109741
0.00109199
0.00108616
0.00123598
0.0012345
0.00123483
0.00124061
0.00125081
0.00144529
0.00146652
0.00147393
0.00147083
0.00146527
0.00163387
0.00163175
0.00163078
0.00163391
0.00163623
0.0018093
0.00180597
0.00180514
0.00180674
0.00180841
0.00187586
0.00187214
0.00186745
0.00186377
0.00185459
0.00204695
0.00204824
0.00205196
0.00205741
0.00206164
0.00211598
0.00211038
0.00210324
0.00209548
0.00207949
0.0022354
0.00223958
0.00224598
0.00225346
0.0022591
0.00239706
0.00239425
0.00238773
0.00237324
0.00234117
0.00241707
0.00243397
0.00244432
0.00245352
0.00246046
0.00253752
0.0025334
0.00252728
0.00251578
0.00248085
0.00246913
0.00249105
0.00249883
0.00250456
0.00250896
0.00248129
0.00247682
0.00247072
0.00246453
0.00245535
0.00240721
0.00242551
0.00243574
0.0024461
0.00245421
0.00258828
0.0025839
0.00257823
0.00256725
0.00252738
0.00252853
0.00253755
0.00252391
0.00245926
0.00244185
0.00248193
0.00249243
0.00249659
0.00249928
0.00242966
0.00242603
0.00241965
0.00240981
0.00239275
0.00243621
0.00245033
0.00245729
0.00246099
0.00246342
0.00245263
0.00245153
0.00244915
0.00244261
0.0024313
0.00237689
0.00238943
0.00239336
0.00239533
0.00239644
0.00223726
0.00223338
0.00222893
0.00222889
0.00224687
0.00229764
0.00229663
0.00229308
0.00229102
0.00229019
0.00219408
0.00219522
0.00219778
0.00220443
0.00222826
0.0020954
0.00205963
0.0020595
0.00206119
0.00206281
0.00206533
0.00207924
0.00207752
0.00207563
0.00207887
0.00204586
0.00205064
0.00205546
0.00205887
0.0020788
0.00207862
0.002078
0.00207329
0.00206263
0.00204819
0.00211302
0.00211281
0.00205365
0.00206455
0.00211528
0.00221066
0.00217207
0.00214606
0.00215723
0.00216218
0.00216253
0.0021619
0.00205633
0.00205554
0.00205391
0.00205473
0.00207711
0.00205629
0.00207481
0.00207459
0.00206979
0.00206518
0.00205882
0.00206337
0.00206849
0.00206907
0.0020563
0.0020044
0.00199981
0.00200303
0.00200354
0.002003
0.00200337
0.00201408
0.00201753
0.00201997
0.00201765
0.00202265
0.00202362
0.00202788
0.00203116
0.00204263
0.00204158
0.00204026
0.00203702
0.00203538
0.0020446
0.00213141
0.00206799
0.00203844
0.00203128
0.00195486
0.00200792
0.00198466
0.00189702
0.00188096
0.00196059
0.00191426
0.00180036
0.00186337
0.0019327
0.00200308
0.00205385
0.00191169
0.00193319
0.00196103
0.00194959
0.0019694
0.00198679
0.0020237
0.00200774
0.0020377
0.00203404
0.00199586
0.00197128
0.00179493
0.00194658
0.00200945
0.00196082
0.00206255
0.00204084
0.00198322
0.00197732
0.00193323
0.0019646
0.0019532
0.00196319
0.00150085
0.00179693
0.00176798
0.0013931
0.00135089
0.00174906
0.00184571
0.00171273
0.00158766
0.00182435
0.00175441
0.00146269
0.00161944
0.00183292
0.0019034
0.00165884
0.00151945
0.00182831
0.00180742
0.00144222
0.00140843
0.00178714
0.00185798
0.00154025
0.00146705
0.00183164
0.0018763
0.00151497
0.00159154
0.00161909
0.0015512
0.00156591
0.00149521
0.00148746
0.00148959
0.00148919
0.0016311
0.0016294
0.00162746
0.00163616
0.00170017
0.00208957
0.00199636
0.00196778
0.00195127
0.00194122
0.0016566
0.00165368
0.00165037
0.00166273
0.00175729
0.00207048
0.00203798
0.00201324
0.0019978
0.00198908
0.00186109
0.00185028
0.00183873
0.0018419
0.0019161
0.00176346
0.00166834
0.00152378
0.00154057
0.00148424
0.00147605
0.00147678
0.00147562
0.00168332
0.00168499
0.00168549
0.00168827
0.00172742
0.00200143
0.00194485
0.00192243
0.00191316
0.00190896
0.00175519
0.00175248
0.00174927
0.00175679
0.00182036
0.00205646
0.00204179
0.0020246
0.00201441
0.00200875
0.00184723
0.00184328
0.00183984
0.00185104
0.00193759
0.0018457
0.0017947
0.00170587
0.00170729
0.00168394
0.00162847
0.00161986
0.00162143
0.00162358
0.00184808
0.00185218
0.00186088
0.00187816
0.0018944
0.00193763
0.00191365
0.00189812
0.00189171
0.00188939
0.00183059
0.00182865
0.001826
0.00182803
0.00185728
0.0019091
0.00186871
0.00186465
0.0018663
0.00186756
0.0018947
0.00201563
0.00194837
0.00187581
0.00171451
0.0016551
0.00163334
0.00163347
0.00163582
0.00163672
0.00187341
0.00187415
0.00188064
0.00189736
0.00191438
0.00188649
0.00187302
0.00186462
0.00186358
0.00186525
0.00171315
0.00171405
0.00171255
0.00170542
0.00169796
0.00165733
0.00162833
0.00161559
0.0016126
0.00161254
0.00139644
0.00139771
0.00139733
0.00139187
0.00138484
0.00128467
0.00127429
0.00126383
0.00125943
0.0012577
0.0012228
0.00122355
0.00122631
0.00123622
0.00125697
0.00104886
0.00103984
0.00103255
0.00103119
0.00103202
0.00102206
0.00102666
0.00103416
0.0010429
0.00104786
0.000898317
0.000861724
0.000855513
0.000854287
0.00085391
0.00088077
0.000878315
0.000877372
0.000881925
0.000911836
0.00115991
0.00117383
0.00117588
0.00116881
0.00116025
0.00126052
0.00125773
0.00125537
0.00125834
0.00127512
0.00148158
0.00147265
0.00147428
0.00147864
0.00148238
0.00172428
0.00172988
0.00173382
0.00172605
0.00168726
0.00187654
0.00189594
0.0018965
0.00189569
0.00189656
0.00197036
0.00197432
0.00197551
0.00196403
0.0019214
0.00207434
0.00208479
0.00208811
0.00209081
0.0020943
0.00228844
0.00228658
0.00228391
0.00227455
0.00223808
0.00220994
0.00222985
0.00223974
0.00224359
0.00224419
0.00235619
0.00234938
0.00234264
0.00233872
0.00234107
0.00229265
0.00230238
0.00230858
0.00231136
0.00231248
0.00235349
0.00235334
0.00235286
0.00234882
0.00233402
0.00226094
0.00225011
0.00225074
0.0022529
0.00225449
0.00235643
0.00235478
0.00235486
0.00236097
0.00236733
0.00236215
0.00233995
0.00233378
0.0023341
0.00233575
0.00221406
0.00221297
0.00221111
0.00220964
0.00222321
0.00216312
0.00215027
0.00215067
0.00215165
0.00215181
0.0022207
0.00222597
0.00223675
0.00225722
0.00228566
0.0022618
0.00224213
0.00222382
0.00221273
0.0022066
0.00216507
0.0021679
0.00217458
0.00218983
0.00221897
0.00220766
0.00217797
0.00217344
0.00217231
0.00217298
0.00206604
0.00206546
0.00206533
0.00206825
0.00208656
0.00196375
0.001948
0.00196457
0.00197066
0.00197623
0.00197997
0.00203201
0.00203438
0.00203611
0.00202507
0.00207974
0.00207783
0.00207488
0.00207293
0.00202853
0.00202732
0.00202705
0.00203038
0.00204842
0.0020733
0.00202798
0.00203037
0.00200941
0.00199179
0.0021863
0.00207499
0.00200779
0.00199097
0.00187925
0.001957
0.00193419
0.00185571
0.00186772
0.00190064
0.00196752
0.00196218
0.00194037
0.00197634
0.0019911
0.00194793
0.00190598
0.00196052
0.00198605
0.00195266
0.00192247
0.00195023
0.00192593
0.0019025
0.00190897
0.00171812
0.00162155
0.00156168
0.00155342
0.00159292
0.00165175
0.00168456
0.00164782
0.00153562
0.00136053
0.00114535
0.000948704
0.00078284
0.000651332
0.00068626
0.000666791
0.000664798
0.000666288
0.000667554
0.000848826
0.00085943
0.000870739
0.000874947
0.000862948
0.000951885
0.000936204
0.000928114
0.000923963
0.000922149
0.0010746
0.00108418
0.00109397
0.00109302
0.00106602
0.00112085
0.00108438
0.00108356
0.00109193
0.00109966
0.00141542
0.00142515
0.00143431
0.00142741
0.00138164
0.00150329
0.00150022
0.00150253
0.00150818
0.00151242
0.00174622
0.0017409
0.00173449
0.0017299
0.00173234
0.00173166
0.00175545
0.00176003
0.00176078
0.00176063
0.00177657
0.00178205
0.00178548
0.00177822
0.00175051
0.0019479
0.00193734
0.0019399
0.00194948
0.00195794
0.00212302
0.00211904
0.00211618
0.00211751
0.00212691
0.00203486
0.00204843
0.00205296
0.00205251
0.00205135
0.00200149
0.00200345
0.00200442
0.00200236
0.0020073
0.00221002
0.00220006
0.00219141
0.00219271
0.00219702
0.0022541
0.00225218
0.00225256
0.00226168
0.00228439
0.00211591
0.00211014
0.00210981
0.00210977
0.0021087
0.00215755
0.00215852
0.00215969
0.00216076
0.00216109
0.00211004
0.00207522
0.00206912
0.00206877
0.00206903
0.00225138
0.002256
0.00226574
0.00228224
0.00229286
0.00207493
0.00206781
0.00206858
0.00206821
0.00206745
0.00203673
0.00203625
0.0020335
0.00202736
0.0020317
0.00197587
0.00197128
0.00197959
0.00198627
0.00198987
0.00201419
0.00201033
0.00200375
0.00199174
0.00197626
0.00183193
0.00185321
0.00186907
0.00187795
0.00188241
0.00203301
0.0020289
0.00202217
0.00200606
0.00195832
0.00213844
0.00213662
0.00212785
0.00212143
0.00211823
0.0020195
0.00202775
0.00203604
0.00203409
0.00197086
0.00197276
0.00197673
0.00197957
0.00199717
0.00199238
0.0019861
0.00198105
0.00198528
0.0019913
0.0019866
0.00198074
0.0021961
0.00219725
0.00220063
0.00219908
0.00215335
0.00193425
0.00199054
0.00202861
0.00193265
0.00187845
0.00201226
0.00200279
0.00188239
0.00187232
0.00202361
0.00204087
0.00204416
0.00204243
0.00204184
0.00191114
0.00190693
0.00189872
0.00188849
0.00203963
0.0020462
0.00203903
0.00203412
0.00189391
0.00189274
0.00188938
0.00187972
0.00187143
0.00213551
0.0020729
0.00205955
0.00204939
0.00204379
0.00205335
0.00205351
0.00205503
0.00206077
0.00217687
0.0019143
0.00198834
0.00197438
0.00197354
0.00197472
0.00197444
0.00198933
0.00199606
0.0020033
0.00199804
0.00195099
0.00196628
0.00196827
0.00196957
0.00196935
0.00196859
0.00196709
0.00196334
0.0019421
0.00183576
0.00183273
0.00199057
0.00200034
0.00196658
0.00191423
0.00195061
0.0019541
0.0018929
0.00208356
0.00201045
0.00197004
0.00203813
0.00203507
0.00196312
0.00197693
0.00194212
0.00185973
0.00174226
0.00159247
0.00142796
0.00130882
0.00122289
0.00118791
0.00118888
0.00119273
0.00116263
0.00108791
0.000968607
0.000856281
0.000718131
0.00062731
0.000536822
0.000589934
0.000589964
0.00058392
0.000574205
0.000566116
0.000565961
0.000563998
0.000563776
0.000570439
0.000604833
0.000762481
0.000778302
0.000773646
0.000761553
0.000750101
0.000785735
0.000783701
0.000781856
0.000785384
0.000804815
0.00102258
0.000994742
0.000985824
0.000984026
0.000984091
0.00121622
0.00122478
0.00123234
0.00122917
0.00120258
0.00137362
0.00134367
0.00134173
0.00134976
0.00135807
0.00161333
0.00161091
0.00160928
0.00161274
0.00162669
0.0015305
0.001536
0.00153677
0.00153427
0.00153234
0.00151397
0.00152051
0.00152554
0.00152552
0.00153285
0.0018265
0.0017977
0.00178682
0.0017891
0.00179518
0.00193163
0.00193134
0.00193405
0.00194785
0.00198361
0.00180026
0.00180037
0.00179917
0.00179608
0.00179349
0.00177929
0.00178224
0.00178531
0.00178999
0.00181442
0.00204644
0.00203003
0.00201278
0.00200614
0.00200553
0.00206383
0.00206574
0.00207359
0.00209497
0.00212366
0.00222275
0.00217688
0.00215712
0.00214985
0.00214774
0.00190073
0.00190126
0.0018984
0.00189155
0.00189854
0.00193414
0.0019279
0.00193413
0.00193788
0.00193888
0.00197145
0.00197049
0.00196922
0.00196915
0.00197736
0.00199569
0.00199818
0.00199872
0.00199834
0.00199816
0.00204698
0.00204736
0.00204783
0.00204625
0.00203417
0.00198565
0.00199198
0.0019933
0.00199323
0.00199277
0.00194658
0.00194016
0.00192911
0.0019112
0.00188681
0.00188075
0.0018749
0.00188123
0.00188758
0.00189157
0.00205827
0.00206567
0.00207739
0.00208911
0.00207995
0.00194574
0.00199152
0.00199087
0.00198376
0.00197753
0.00194322
0.00194405
0.00194315
0.00193918
0.00192154
0.00203687
0.00202336
0.00201672
0.00201181
0.00200972
0.0019396
0.00177948
0.00200225
0.0019468
0.00182053
0.00217309
0.00177266
0.00186966
0.00231638
0.0018219
0.00192285
0.00264848
0.00182857
0.00214178
0.00200162
0.00242738
0.0019312
0.00177088
0.00148751
0.00124809
0.00103282
0.00092841
0.000885838
0.000878777
0.000860276
0.000796145
0.000694993
0.000595492
0.000497143
0.000440842
0.000383828
0.000434095
0.000432002
0.000426817
0.000421271
0.000417103
0.000376837
0.000384688
0.000392149
0.000397492
0.000408961
0.000593368
0.000564449
0.000547034
0.000539571
0.000536837
0.000719508
0.000726003
0.000736686
0.000754708
0.000791749
0.00082156
0.000793752
0.000787031
0.00077913
0.000771208
0.00105777
0.00105993
0.00106905
0.00109516
0.00114235
0.00136049
0.00130539
0.00128443
0.00127549
0.00127128
0.0013146
0.00132064
0.00132698
0.00133404
0.00136741
0.00167015
0.00163202
0.00160932
0.00160272
0.00160261
0.00175243
0.00175492
0.001762
0.00178035
0.00182398
0.00153664
0.00151128
0.00150891
0.00150944
0.00150956
0.00164541
0.00164629
0.00164811
0.00165161
0.00166655
0.00175434
0.00174905
0.00174495
0.00174133
0.00173883
0.00183177
0.00183843
0.00184691
0.00184931
0.00182807
0.00185437
0.00187255
0.001868
0.00185792
0.00184918
0.00198948
0.00199799
0.0020104
0.00201714
0.00199043
0.00195191
0.00195366
0.00195306
0.00195325
0.00195346
0.00191099
0.00190974
0.00190681
0.00190292
0.0018943
0.00198325
0.00200401
0.00201077
0.00201511
0.00201831
0.00203321
0.00203415
0.00203567
0.00203354
0.00200574
0.00193894
0.00192974
0.00193069
0.00193487
0.00193807
0.00211201
0.00212198
0.00213685
0.00214449
0.00210057
0.00188313
0.00182498
0.00182603
0.00183874
0.00184812
0.00198458
0.00198212
0.00197802
0.00197577
0.00198643
0.00191974
0.00188788
0.0018833
0.00188337
0.00188286
0.00199398
0.00200233
0.00201414
0.00202278
0.0020101
0.00185796
0.00192177
0.00191822
0.00190592
0.0018957
0.00196674
0.00197659
0.00199265
0.00200086
0.00192733
0.00181107
0.001815
0.00182017
0.00182185
0.0018216
0.00199801
0.0020048
0.00201117
0.00200943
0.00198483
0.00198344
0.00188896
0.00183211
0.00199577
0.00199849
0.00183231
0.00186635
0.00186916
0.00186614
0.00186236
0.00197311
0.00197838
0.00198365
0.00198844
0.00198868
0.00187044
0.00184032
0.00194867
0.00193571
0.0018286
0.00188373
0.00195327
0.001949
0.00181845
0.00182361
0.00195369
0.00197762
0.00194843
0.00220084
0.00207565
0.00204372
0.00210841
0.00208208
0.00202689
0.00195864
0.00187189
0.00189511
0.00197658
0.00198512
0.00194628
0.00196036
0.00199734
0.00198523
0.00193684
0.0019905
0.00199688
0.00204077
0.00210841
0.0021065
0.00203177
0.00202838
0.00207579
0.00197815
0.0020073
0.00201386
0.00200983
0.00199919
0.00200281
0.00200673
0.00198646
0.00197472
0.00198364
0.00195122
0.0019208
0.00178978
0.00190362
0.00192002
0.00180803
0.00185019
0.00194747
0.00191117
0.00189101
0.00191336
0.00190495
0.00193475
0.0019439
0.00191006
0.00192086
0.00190624
0.00195856
0.00200083
0.0019284
0.00193775
0.00197121
0.00200925
0.00196346
0.0019482
0.00202052
0.00224883
0.0020045
0.00196556
0.00207779
0.00200151
0.00200155
0.00184597
0.00157837
0.00120486
0.000840278
0.000694962
0.000739382
0.00109431
0.00130507
0.00167342
0.00187837
0.0019146
0.00193177
0.00194387
0.00225401
0.00226977
0.00228616
0.00228774
0.00221471
0.00158564
0.00169276
0.00170859
0.00170788
0.00170233
0.00235744
0.00238066
0.00240875
0.00241485
0.00233984
0.0016608
0.00166195
0.00166419
0.00166686
0.00166611
0.00241553
0.00244062
0.00247575
0.00250263
0.00243486
0.00240066
0.00256608
0.00258582
0.00257568
0.00256356
0.00180605
0.00180867
0.00180585
0.00179008
0.00171265
0.0014441
0.0015537
0.00155938
0.00155821
0.00155679
0.00203166
0.00204298
0.00205604
0.00206611
0.00209149
0.00151734
0.00150174
0.00150367
0.00150601
0.00150367
0.00147822
0.00147959
0.00148157
0.00148694
0.00148935
0.00202714
0.00194398
0.00191561
0.00189938
0.00188822
0.00179188
0.00180597
0.00182935
0.00186276
0.00188051
0.00188591
0.00179604
0.00177162
0.00176121
0.00175517
0.00172125
0.00172958
0.00174561
0.00177335
0.00182073
0.00170151
0.001627
0.00161606
0.00161982
0.00162425
0.00143761
0.00139244
0.00138733
0.00138778
0.0013864
0.00147061
0.00146953
0.00146654
0.00146825
0.00150245
0.00182041
0.00179138
0.0017692
0.00175652
0.0017507
0.00167754
0.00167717
0.0016805
0.0017031
0.00180694
0.0017074
0.00170373
0.00170671
0.00170831
0.00170844
0.00172154
0.00171946
0.00171559
0.00171191
0.00171979
0.00177775
0.00169165
0.00160874
0.00142919
0.00135674
0.00134525
0.00134957
0.00135247
0.00135283
0.00165628
0.00165972
0.00166741
0.00168615
0.00171144
0.00170636
0.00167649
0.00165878
0.00165206
0.00164947
0.00139962
0.00140108
0.00140149
0.0013973
0.00138878
0.00133732
0.0013248
0.0013131
0.00130631
0.00130239
0.00114946
0.001153
0.00116108
0.00117693
0.00118857
0.00109409
0.00108903
0.0010795
0.00107529
0.00107401
0.000896241
0.000899323
0.000900848
0.000897181
0.000889077
0.000886686
0.000896875
0.000899046
0.000895096
0.000889472
0.000736877
0.000738051
0.000741684
0.000750464
0.000763728
0.000765874
0.000749038
0.00074313
0.000741119
0.00074012
0.000731417
0.000734215
0.000739628
0.000750534
0.000774394
0.000681892
0.000684882
0.00068082
0.000672645
0.000664975
0.000533377
0.000533741
0.00053489
0.000539508
0.000554794
0.00059373
0.00057157
0.00056678
0.000565499
0.000564924
0.000565597
0.000566132
0.000568564
0.000576744
0.000603966
0.000738402
0.000754812
0.000750825
0.00074066
0.00073168
0.000674928
0.00067438
0.000673887
0.000676472
0.000695595
0.00082729
0.000806023
0.000803224
0.000805903
0.000808349
0.000790807
0.000691347
0.000683892
0.000656077
0.000647958
0.000644914
0.000643348
0.000623962
0.000582829
0.000624607
0.000639945
0.000639269
0.000632942
0.000627093
0.000535161
0.000532567
0.000530723
0.0005348
0.000566183
0.00053437
0.000508013
0.000502701
0.000500439
0.000498571
0.00048535
0.000485107
0.000485646
0.000489759
0.000509994
0.000417728
0.000398655
0.000394994
0.000396998
0.000398981
0.000447204
0.000448698
0.000452324
0.000462563
0.00048881
0.000549852
0.00054326
0.000537038
0.000526179
0.000516033
0.000645078
0.000643029
0.000644121
0.000656857
0.000696161
0.000889976
0.000850502
0.000833401
0.000825933
0.00082224