/*--------------------------------*- C++ -*----------------------------------*\
  =========                 |
  \\      /  F ield         | OpenFOAM: The Open Source CFD Toolbox
   \\    /   O peration     | Website:  https://openfoam.org
    \\  /    A nd           | Version:  7
     \\/     M anipulation  |
\*---------------------------------------------------------------------------*/
FoamFile
{
    version     2.0;
    format      ascii;
    class       volVectorField;
    location    "3.5";
    object      wallShearStress;
}
// * * * * * * * * * * * * * * * * * * * * * * * * * * * * * * * * * * * * * //

dimensions      [0 2 -2 0 0 0 0];

internalField   uniform (0 0 0);

boundaryField
{
    outlet1
    {
        type            calculated;
        value           uniform (0 0 0);
    }
    Wall
    {
        type            calculated;
        value           nonuniform List<vector> 
40276
(
(0.00030108 5.46868e-05 0.00020218)
(-0.000185352 -6.7632e-06 0.000414525)
(-0.0001888 -6.24447e-06 0.000406066)
(0.00017229 -0.000164287 0.000149314)
(0.000129289 -0.000114451 0.000127059)
(8.62367e-05 -7.15734e-05 0.000119877)
(7.36545e-05 -3.77639e-05 0.000122689)
(9.01474e-05 -1.78045e-05 0.000136906)
(7.57844e-05 -2.38364e-06 0.000131628)
(7.59201e-05 -1.5255e-05 0.000138333)
(0.000454671 4.63675e-05 0.000481481)
(0.000547144 2.15262e-05 0.000526061)
(0.000587479 3.32444e-05 0.000942668)
(0.0005659 3.83001e-05 0.00087461)
(0.000329703 7.48191e-06 0.000274665)
(0.000301997 2.55054e-05 0.000311918)
(0.000340932 4.42874e-05 0.00015012)
(0.000323908 3.6545e-05 9.07091e-05)
(-1.71818e-05 -0.000107838 -1.94793e-05)
(-1.16896e-05 -0.000136477 -1.10815e-05)
(-0.000124655 3.19725e-05 0.000208017)
(-0.000153819 3.6469e-05 0.000195906)
(-0.000108406 2.94412e-05 6.68196e-05)
(-0.000126076 2.72105e-05 6.32949e-05)
(-9.32136e-05 2.2167e-05 4.27254e-05)
(-0.000104998 2.31952e-05 3.71665e-05)
(-9.99114e-05 3.60184e-05 1.4001e-05)
(-9.91212e-05 3.62071e-05 1.01605e-05)
(-0.00018211 5.83504e-05 3.67545e-05)
(-0.000156739 4.7907e-05 2.67069e-05)
(-0.000152378 5.01975e-05 0.00010144)
(-0.000175192 6.14886e-05 0.00011115)
(-5.2609e-05 -3.07493e-06 0.000159786)
(-4.6849e-05 -4.75987e-06 0.000148519)
(-4.85651e-05 9.52921e-06 6.28073e-06)
(-4.81431e-05 1.06584e-05 6.03361e-06)
(0.000589005 5.4925e-05 0.000145101)
(0.000635619 2.90251e-05 0.000143696)
(0.0011453 0.000270411 0.000282893)
(0.00132415 0.000362632 0.000305205)
(0.00100429 4.52388e-05 6.08812e-05)
(0.000940693 1.32206e-05 8.5278e-05)
(-2.60224e-05 -1.50995e-05 -0.000415205)
(-4.37305e-06 -1.26188e-05 -0.000392034)
(-2.5529e-05 -8.1053e-07 -0.000392811)
(-2.55034e-05 -7.12611e-06 -0.000341135)
(-5.50014e-05 1.01307e-06 -0.000349318)
(-4.24895e-05 -3.6337e-06 -0.00029579)
(-5.79096e-05 -5.91384e-07 -0.00026713)
(-6.10357e-05 1.87875e-06 -0.000233588)
(-5.29422e-05 -2.12528e-06 -0.000204208)
(-6.7579e-05 2.43526e-06 -0.00021186)
(-6.2868e-05 -7.09025e-07 -0.000180746)
(-6.68799e-05 3.75648e-06 -0.000181093)
(0.000450264 6.9765e-05 0.000208531)
(0.000456837 8.35976e-05 0.000176604)
(-5.05554e-05 2.63819e-05 0.000186353)
(6.35619e-05 2.21354e-05 0.000189316)
(-4.61345e-05 2.15854e-05 0.00018961)
(-0.000449917 -2.88538e-05 -0.00042998)
(-0.000474282 -2.65242e-05 -0.000437246)
(1.8903e-05 3.44843e-05 0.000288862)
(-1.26604e-05 -1.1511e-05 0.000223314)
(1.30924e-05 -3.72004e-07 2.91329e-06)
(1.55708e-05 -7.64169e-09 6.68455e-06)
(1.31605e-05 -5.21591e-08 5.66485e-06)
(1.0278e-05 -2.91664e-07 4.73653e-06)
(1.31265e-05 -1.49957e-07 3.64442e-06)
(-9.69495e-05 -6.09473e-06 -8.88247e-05)
(-0.000106333 4.31833e-06 -9.58855e-05)
(-6.74153e-05 6.41046e-06 -0.000159488)
(-6.52224e-05 -5.74163e-07 -0.000163314)
(-3.58662e-05 2.66776e-06 -3.58009e-05)
(-3.5485e-05 2.66265e-06 -3.41891e-05)
(-3.11861e-05 2.48324e-06 -3.15966e-05)
(-3.0086e-05 3.29081e-06 -3.03188e-05)
(-3.41715e-05 1.57295e-06 -3.23582e-05)
(2.28492e-05 -1.3577e-06 -9.53305e-06)
(1.99167e-05 -1.55098e-06 -1.30865e-05)
(2.51185e-06 3.62807e-06 -2.03889e-07)
(3.44216e-06 3.46516e-07 -1.26387e-07)
(8.63699e-06 -8.56569e-08 -5.5174e-07)
(1.83913e-05 -4.39218e-06 1.26524e-05)
(1.72902e-05 -4.59356e-06 1.2711e-05)
(2.00149e-05 -1.20364e-05 1.37311e-05)
(1.29778e-05 -1.15724e-09 7.84516e-06)
(1.04366e-05 -2.00493e-07 6.67299e-06)
(1.24952e-05 -1.52681e-07 9.13377e-06)
(1.81204e-05 -1.25752e-05 1.28913e-05)
(1.34275e-05 -1.5819e-05 1.04262e-05)
(1.10784e-05 -1.53801e-05 9.22043e-06)
(-3.10107e-05 -6.82663e-07 -2.82234e-05)
(1.02774e-05 -1.18079e-07 7.98888e-06)
(1.16253e-05 -1.82324e-07 9.75404e-06)
(9.79415e-06 -1.3667e-07 8.76072e-06)
(8.72761e-06 -5.54213e-08 8.86254e-06)
(7.48901e-06 -9.40856e-08 8.69996e-06)
(6.21029e-06 -1.21354e-07 8.42685e-06)
(2.50026e-06 7.55482e-08 6.21487e-06)
(1.28645e-06 1.21749e-08 5.52382e-06)
(1.23549e-07 -4.88217e-08 4.7972e-06)
(-3.70547e-06 7.3083e-08 5.06193e-07)
(-4.20006e-06 1.20173e-08 -4.02105e-07)
(-3.50766e-05 2.50405e-06 -3.09361e-05)
(-4.60073e-06 6.86317e-09 -1.38773e-06)
(-9.78283e-06 -1.00448e-05 -1.18129e-05)
(-7.79112e-06 -1.04159e-05 -9.06042e-06)
(-4.75672e-06 -6.0129e-08 -2.36367e-06)
(-4.80676e-06 -5.28058e-08 -3.45122e-06)
(-4.30178e-06 -6.3564e-08 -4.0636e-06)
(-4.70326e-06 -6.67119e-08 -4.68481e-06)
(-4.09168e-06 -1.3014e-07 -5.38959e-06)
(-4.18543e-06 -1.61734e-07 -5.98017e-06)
(-3.68069e-06 -3.20091e-07 -6.89688e-06)
(-3.68676e-06 -5.85372e-07 -6.78534e-06)
(6.82698e-07 -1.16023e-06 -2.44239e-05)
(-3.41529e-07 -2.75854e-06 -2.66434e-05)
(-2.07473e-06 -2.90765e-06 -2.53501e-05)
(-0.000260635 -6.18393e-05 0.000478614)
(-0.000262435 -6.00848e-05 0.0004342)
(-7.57671e-06 -1.45936e-06 7.19454e-06)
(-1.21726e-05 -1.94236e-06 1.16624e-05)
(-2.32799e-05 -2.65921e-06 2.30035e-05)
(-1.67766e-05 -3.1872e-06 1.91609e-05)
(-7.52543e-07 -2.1905e-05 -1.11448e-06)
(2.8876e-07 -2.04276e-05 -6.25209e-08)
(-0.000128031 2.79422e-05 0.000184834)
(-0.000110951 3.71078e-05 0.000156916)
(-0.000159968 -1.40857e-05 0.000273942)
(-0.000139882 -2.00014e-05 0.000236001)
(-0.00010431 -3.74718e-06 0.000175146)
(-9.12912e-05 -6.88164e-06 0.000150792)
(-0.000160116 9.51391e-05 0.000479049)
(-0.000224133 0.000165087 0.00067509)
(1.04834e-05 -1.29394e-05 0.000188289)
(2.3052e-06 -5.892e-06 0.000158518)
(-0.000101151 2.72413e-05 0.000192776)
(-5.46582e-05 1.00434e-06 0.00016755)
(-0.000186721 -4.43294e-05 0.000502265)
(-0.000188301 -2.5691e-05 0.000501388)
(-0.000187436 -3.537e-05 0.000531447)
(-0.000205655 -1.11506e-05 0.000534374)
(-0.000558475 3.64332e-06 -0.000150947)
(-0.000640087 4.09624e-06 -0.000182909)
(-2.2761e-05 -7.96787e-05 9.96018e-06)
(-2.65554e-05 -7.89424e-05 1.19266e-05)
(-2.15221e-05 -4.37796e-05 6.53465e-05)
(-2.52731e-05 -5.35505e-05 8.1658e-05)
(-2.90808e-05 -5.24584e-05 6.59667e-05)
(-2.32604e-05 -4.03804e-05 5.36456e-05)
(-1.54718e-05 -8.61494e-05 8.48811e-06)
(-1.9899e-05 -9.83571e-05 6.53341e-06)
(-2.351e-05 -8.34854e-05 8.82068e-06)
(-2.18955e-05 -8.64931e-05 9.21395e-06)
(-2.3136e-05 -0.000128638 -1.56102e-05)
(-1.99744e-05 -0.000111411 -1.41257e-05)
(-7.64398e-06 -5.66208e-05 -3.3168e-06)
(-9.87983e-06 -5.05363e-05 -4.75763e-06)
(-6.09608e-05 -3.10236e-05 9.45203e-05)
(-5.57455e-05 -3.28455e-05 8.93157e-05)
(7.61396e-05 4.85534e-06 -0.000241099)
(7.92697e-05 -3.38799e-06 -0.000226896)
(-0.000136177 -5.74059e-05 -1.23513e-05)
(-0.000135127 -6.4213e-05 -1.4515e-05)
(-0.000307918 -4.87411e-05 0.000133993)
(-0.000329985 -5.31198e-05 0.000124166)
(-0.000287736 -7.07427e-05 -2.57355e-05)
(-0.000281037 -5.847e-05 -3.47621e-05)
(-0.000167392 0.000193098 0.000227968)
(-0.000160667 0.000241413 0.000210878)
(-0.000246641 -4.43747e-05 1.30665e-05)
(-0.000129609 -4.5886e-05 -1.82502e-05)
(-0.000205914 -7.80443e-05 7.44351e-05)
(-0.000177533 -7.65532e-05 6.2987e-05)
(-0.000225669 -5.1797e-05 5.83437e-05)
(-6.65862e-05 -4.1308e-05 -6.99962e-06)
(-3.91232e-05 -2.089e-05 6.05336e-05)
(-3.2241e-05 -1.93667e-05 5.58875e-05)
(0.00069439 -0.000295996 0.00047025)
(0.000611422 -0.000245134 0.00038099)
(0.000633644 -0.000381978 0.000238526)
(0.000555334 -0.000263683 0.000264103)
(0.00057923 -0.000326604 0.000239379)
(0.000363376 -0.000304971 0.000179672)
(0.00046888 -0.000350077 0.000216362)
(0.000370996 -0.000291907 0.000180853)
(0.000563707 -0.000289105 0.000391255)
(0.000607873 -0.000357576 0.000379462)
(0.000578307 -0.000330337 0.000313791)
(0.000489646 -0.000374356 0.000184202)
(0.000588063 -0.000401856 0.000179795)
(0.000491768 -0.000328121 0.000223778)
(0.000236728 -0.00021023 0.000152957)
(0.000352072 -0.00031187 0.000177248)
(0.000278871 -0.00023311 0.000173042)
(0.000225209 -0.000207975 0.000160167)
(9.63124e-05 -7.50238e-05 0.00012434)
(0.000168627 6.61909e-05 0.000118475)
(0.000215088 7.21419e-05 0.000148334)
(0.000195933 5.68757e-05 0.000154376)
(0.000203896 4.84926e-05 0.000112034)
(0.000252464 5.24376e-05 0.000135517)
(0.000212986 6.82146e-05 0.000147874)
(0.000200784 5.84064e-05 0.000139368)
(9.70034e-05 -6.34268e-06 0.000197743)
(8.56551e-05 -1.72184e-06 0.000187956)
(9.93976e-05 1.2743e-05 0.000151092)
(0.00012025 5.04268e-06 0.000186588)
(9.73801e-05 -2.89788e-06 0.000153711)
(8.65911e-05 4.73714e-06 0.000138418)
(0.000115385 2.64944e-06 0.000192255)
(9.65237e-05 2.48663e-06 0.000184845)
(6.01983e-05 -2.15812e-05 0.00015159)
(6.80005e-05 -1.82754e-05 0.000137283)
(7.80203e-05 7.02379e-06 0.000125976)
(6.02635e-05 -5.69974e-06 0.000104822)
(6.01357e-05 -6.53498e-06 9.60308e-05)
(6.41321e-05 -8.30605e-06 0.000120746)
(2.09909e-05 -3.30555e-05 8.83954e-05)
(2.85238e-05 -2.04515e-05 7.19973e-05)
(9.0021e-05 1.87147e-05 0.000170864)
(9.50533e-05 2.51076e-05 0.000160157)
(9.34916e-05 2.6418e-05 0.000156016)
(9.12838e-05 3.29356e-05 0.000138498)
(6.88131e-05 -7.34368e-06 0.000178458)
(5.87172e-05 -4.86204e-06 0.000152926)
(5.31571e-05 8.73747e-06 0.000110871)
(5.50219e-05 1.35862e-05 0.000103113)
(4.31151e-05 -1.20045e-06 0.000110467)
(0.000141632 5.27361e-05 0.000110336)
(9.68745e-05 3.66079e-05 9.85363e-05)
(0.000164164 5.8533e-05 0.000113124)
(0.000163224 5.04607e-05 0.000105712)
(0.00011731 4.491e-05 8.568e-05)
(0.000122854 4.2797e-05 9.24594e-05)
(4.43961e-05 -2.29955e-05 0.000134221)
(3.21472e-05 -1.86751e-05 0.00011674)
(2.52281e-05 -3.44874e-05 0.000119066)
(7.99647e-06 -2.54782e-05 9.99622e-05)
(-5.17577e-07 -3.6491e-05 6.74397e-05)
(-9.4936e-06 -3.05053e-05 5.83149e-05)
(2.61275e-05 -4.24814e-06 8.49416e-05)
(5.46302e-05 1.73299e-05 7.38251e-05)
(-1.55172e-05 -2.14524e-05 2.89389e-05)
(7.60962e-06 -3.55661e-06 3.74904e-05)
(-9.07094e-06 -1.28171e-05 1.99262e-05)
(3.11611e-05 1.29145e-05 3.08556e-05)
(6.90397e-05 3.0253e-05 3.68799e-05)
(7.9283e-05 2.9177e-05 6.10403e-05)
(7.12916e-05 2.92131e-05 4.66754e-05)
(0.000298166 1.92917e-05 0.000519949)
(0.000337831 4.79051e-05 0.000612582)
(0.000299622 -7.99354e-06 0.000532337)
(0.000304956 2.17921e-05 0.000536837)
(0.000411274 0.000115795 0.000463182)
(0.000452867 0.00012518 0.000561093)
(0.000323509 0.000112518 0.000463752)
(0.000358295 0.000107388 0.000535808)
(0.000316348 0.000109335 0.000490074)
(0.000301535 9.22075e-05 0.000511033)
(0.000430924 0.000168979 0.000574459)
(0.000361599 0.000144321 0.000432181)
(0.0004202 0.000154503 0.000546668)
(0.000265278 9.90999e-05 0.000445411)
(0.000359805 0.000129608 0.000558587)
(0.000464665 0.000148931 0.000446903)
(0.000398179 0.000146506 0.000506685)
(0.000397785 0.000146569 0.000515839)
(0.000439495 0.000140753 0.000618224)
(0.00046362 0.000181731 0.000556289)
(0.000506372 0.000196429 0.000546932)
(0.000480577 0.000194916 0.000503679)
(0.000474111 0.000163221 0.000608015)
(0.00046125 0.000167125 0.000613024)
(0.000476489 8.90762e-05 0.000557379)
(0.000604685 9.56132e-05 0.000593405)
(0.000464036 0.000111314 0.000569955)
(0.000347082 0.000108627 0.000430862)
(0.000441435 0.000105996 0.000542265)
(0.000478768 8.27552e-05 0.000474796)
(0.000354436 6.52593e-05 0.000351276)
(0.000377172 0.000113941 0.000411342)
(0.000416564 9.66503e-05 0.000407794)
(0.000410515 0.000105745 0.000389608)
(0.000581538 -4.26472e-05 0.000521745)
(0.000603018 -6.42205e-05 0.000518322)
(0.000633073 -0.000177591 0.00048019)
(0.000476652 -7.42739e-05 0.000425612)
(0.000575224 -0.00015033 0.000356493)
(0.000442411 -1.16126e-05 0.000385763)
(0.000621659 -0.000166029 0.000373285)
(0.000403733 -3.42363e-05 0.000309133)
(0.000531499 -0.000126528 0.000279065)
(0.000656501 -0.000273611 0.000267321)
(0.000378885 6.45221e-05 0.000390681)
(0.000380142 9.38764e-05 0.000399226)
(0.000419067 2.13822e-05 0.000316224)
(0.000410332 6.55687e-05 0.000328057)
(0.000449273 0.00016241 0.000429665)
(0.000466345 0.000161026 0.000558554)
(0.000473407 0.000162527 0.000510235)
(0.00049297 0.000142672 0.000414586)
(0.000549897 0.000180579 0.000453659)
(0.000533188 0.000203692 0.000567337)
(0.000464635 0.000161236 0.000558681)
(0.000499038 0.000163065 0.000594791)
(0.000505546 0.000186729 0.000416982)
(0.000484789 0.000172001 0.000563981)
(0.000487235 0.00017662 0.00057014)
(0.000593617 0.000215144 0.000687379)
(0.000577531 0.000208193 0.000541706)
(0.000438334 0.000127179 0.000390117)
(0.000619084 0.000195266 0.000437336)
(0.000489407 0.000110179 0.000390514)
(0.000630022 0.000158214 0.000392285)
(0.000548202 0.00019239 0.000446001)
(0.00055636 0.000176736 0.000525321)
(0.000740486 0.000282566 0.000536063)
(0.000586815 0.000200763 0.000421285)
(0.000563864 0.000171741 0.000447485)
(0.000787136 0.000281314 0.000473057)
(0.000589623 0.000257971 0.000490748)
(0.00062868 0.00021956 0.000613946)
(0.000584648 0.000190738 0.000652082)
(0.000690323 0.000240957 0.000617911)
(0.000695824 0.000249407 0.000595336)
(0.000362099 0.000136519 0.000491909)
(0.000359746 0.000131558 0.00049532)
(0.000244233 6.62104e-05 0.000460977)
(0.000359703 0.000130842 0.000535599)
(0.000443056 0.000117785 0.000679141)
(0.000408358 0.000109059 0.000632754)
(0.000382262 0.000135237 0.000514908)
(0.000406608 0.000147047 0.000543145)
(0.000390811 0.000141825 0.000590883)
(0.000364689 5.14836e-05 0.000662833)
(0.000314634 2.84806e-05 0.000600216)
(0.000374334 9.72669e-05 0.000638847)
(0.000347491 8.37127e-05 0.000605256)
(0.000311298 2.575e-05 0.000519679)
(0.000427609 0.00015839 0.000558923)
(0.000453499 0.000127686 0.000646225)
(0.00039913 0.000107495 0.000617336)
(0.000384807 -2.26163e-05 0.000646581)
(0.000484949 0.00013414 0.000747433)
(0.000363966 4.63261e-05 0.000646126)
(0.000470809 0.000179817 0.000555919)
(0.000518122 0.000193794 0.00060465)
(0.000463844 0.000136916 0.000671351)
(0.000438471 0.000161372 0.000583246)
(0.00051169 0.000194707 0.000595767)
(0.000514002 0.000116249 0.000732148)
(0.000517604 0.000129988 0.000805622)
(0.000410983 2.73496e-05 0.000706623)
(0.000373221 2.72277e-05 0.000622652)
(0.00040595 5.52144e-05 0.00066755)
(0.000464009 0.000114319 0.000701766)
(0.000393531 5.47237e-05 0.000624033)
(0.000516064 0.000204289 0.000627256)
(0.000519924 9.10715e-05 0.000777261)
(0.000597368 0.000176268 0.000870901)
(0.000274242 -2.99225e-07 0.00048224)
(0.000288891 4.03491e-05 0.000502662)
(0.000347119 0.000121338 0.000545555)
(0.000366201 7.31293e-05 0.000620142)
(0.000339033 1.40879e-05 0.000563664)
(0.000434485 7.99245e-05 0.000694853)
(0.000327472 -2.49814e-05 0.000553959)
(0.000333579 2.14513e-05 0.000557607)
(0.000421289 0.000130357 0.000663419)
(0.000343898 3.69818e-05 0.000583162)
(0.000294552 2.69848e-05 0.000493368)
(0.000360125 -9.14307e-06 0.000591764)
(0.000306621 3.22797e-05 0.000512533)
(0.000342427 3.68695e-05 0.000562447)
(0.000414266 2.77186e-05 0.000676057)
(0.000320483 8.07252e-05 0.000549255)
(0.000318146 4.6908e-05 0.00053187)
(0.000404008 -6.70663e-05 0.000615987)
(0.000478236 0.000113436 0.000758132)
(0.000409303 -4.02967e-05 0.000697139)
(0.000521906 5.26917e-05 0.000854545)
(0.000398597 -5.44821e-06 0.000671389)
(0.000420012 1.07188e-05 0.000699587)
(0.000532128 0.000146646 0.000777783)
(0.000423439 3.94301e-05 0.000677744)
(0.000482348 1.87889e-05 0.000770851)
(0.000515046 3.34731e-05 0.000842707)
(0.000517596 1.03093e-05 0.000827555)
(0.000416131 2.64704e-05 0.000664617)
(0.000467648 2.96646e-05 0.00074199)
(0.000416065 1.4257e-05 0.000658186)
(0.000471374 4.1434e-05 0.000744304)
(0.000558734 0.000171455 0.000721592)
(0.000553424 0.000194666 0.0006508)
(-2.10228e-05 -4.91032e-05 0.000160467)
(0.000572159 0.000143463 0.00080606)
(0.000497919 0.000129383 0.000698747)
(0.000638507 0.000235415 0.000694813)
(0.00058377 0.000221226 0.000622281)
(0.000624946 0.000216473 0.000705887)
(-2.52852e-05 -4.87665e-05 0.000159906)
(0.000559693 0.000172483 0.00074776)
(0.000567218 0.000200197 0.000678169)
(0.000618327 0.000223409 0.000715596)
(0.000567051 0.000162371 0.000797684)
(0.000631045 0.000165101 0.00093833)
(-2.29233e-05 -4.85553e-05 0.000157157)
(0.000469826 5.37151e-05 0.000757856)
(0.000434798 4.58479e-05 0.000723983)
(0.000466574 7.29848e-05 0.000729091)
(0.000533191 4.55503e-05 0.000815465)
(0.000465759 9.22553e-05 0.000721809)
(-2.53961e-05 -3.80482e-05 0.000160171)
(0.000581274 0.000225877 0.000688872)
(0.000605947 0.000112278 0.000866078)
(0.000692684 0.000208869 0.000953217)
(0.000667917 0.000221067 0.000795025)
(0.000742675 0.000264465 0.000669012)
(0.000809415 0.000306215 0.000658667)
(0.000653809 0.000187358 0.000855253)
(0.000615094 0.0001754 0.000768946)
(0.000649821 0.000268079 0.000632057)
(0.000684489 0.000246505 0.000690581)
(0.000664136 0.000213299 0.000779218)
(0.000721882 0.000247182 0.000824551)
(0.000760876 0.000293041 0.000802037)
(0.000677281 0.000211107 0.000861507)
(0.000694463 0.000165428 0.000964035)
(0.000567565 0.000129867 0.00080746)
(0.000638758 0.00013372 0.00099856)
(0.00051476 8.85005e-05 0.000778207)
(0.00060074 7.73827e-05 0.000912984)
(0.000747349 0.000246588 0.00094752)
(0.000619754 0.000193762 0.000794852)
(0.000667086 0.00017489 0.000950969)
(0.000554296 9.06652e-05 0.000894428)
(0.000568904 0.000142426 0.000817897)
(0.000753821 0.000133187 0.00105938)
(0.000649625 0.000134557 0.00101345)
(0.000597624 5.39793e-05 0.000960982)
(0.000590314 2.14933e-05 0.000938778)
(0.000480804 1.7029e-05 0.000801545)
(0.000470127 4.46931e-05 0.000752331)
(0.000612059 0.000111971 0.000889269)
(0.000628897 0.000124715 0.000981612)
(0.000585094 1.94223e-05 0.000917907)
(0.000604306 4.11454e-05 0.000949347)
(0.000607752 -2.84166e-05 0.000944438)
(0.000582431 4.91509e-05 0.000892535)
(0.000685253 0.000130948 0.000996525)
(-3.13769e-05 -4.31469e-05 0.000168568)
(0.00051375 -2.6312e-06 0.00083882)
(0.000465684 4.58591e-05 0.00073802)
(0.000670017 0.000160834 0.000985589)
(0.000706053 0.000202831 0.0010538)
(0.000583212 1.44444e-06 0.000972309)
(0.000736726 7.71818e-05 0.00115944)
(0.000541371 5.30513e-05 0.000848494)
(0.000664029 4.03288e-05 0.00101873)
(0.00053302 8.27514e-05 0.00084485)
(0.000510441 1.0829e-05 0.000783591)
(0.000647259 -7.13519e-05 0.000962108)
(0.000720615 5.40426e-05 0.00113931)
(0.000717884 3.70793e-05 0.00112893)
(0.00031684 -4.75323e-05 0.000454885)
(0.000240766 1.71066e-05 0.000370621)
(0.000261699 1.29792e-05 0.000377714)
(0.00024685 6.86213e-06 0.000374895)
(0.000180201 3.15291e-05 0.000319514)
(0.000228283 3.08582e-05 0.000363416)
(0.000287005 1.29451e-05 0.000386206)
(0.000222984 4.59414e-05 0.000364138)
(0.000313859 3.61511e-05 0.000554277)
(0.000309017 4.95681e-05 0.00051894)
(-2.31354e-05 -4.17963e-05 0.00015371)
(-2.68079e-05 -4.38231e-05 0.000160612)
(-2.48046e-05 -4.04923e-05 0.000148764)
(-2.62888e-05 -3.68039e-05 0.000149624)
(0.000334729 3.72226e-05 0.000531609)
(0.000298656 7.24196e-05 0.000483432)
(0.00034434 2.37976e-05 0.000475655)
(0.000297804 4.436e-05 0.000426614)
(0.000336621 1.07759e-05 0.000458461)
(0.000322658 3.52238e-05 0.00044021)
(-2.97352e-05 -3.61895e-05 0.000155021)
(0.000337291 1.44676e-05 0.000450082)
(-3.50642e-05 -2.88503e-05 0.000165102)
(-3.01502e-05 -3.45686e-05 0.000156093)
(0.000297775 3.54692e-05 0.000235766)
(0.000275431 3.58037e-05 0.000240087)
(0.000271617 2.00481e-05 0.00024364)
(-3.34927e-05 -3.44055e-05 0.000154114)
(-2.65444e-05 -3.82996e-05 0.000164842)
(-2.59359e-05 -4.18468e-05 0.000161375)
(-3.23495e-05 -3.37295e-05 0.00017528)
(-3.38937e-05 -4.22738e-05 0.000182903)
(-2.97314e-05 -3.02511e-05 0.000166869)
(-2.85872e-05 -2.61827e-05 0.000159655)
(-3.46952e-05 -3.44514e-05 0.000159221)
(0.000266626 5.84361e-05 0.000135776)
(0.000312214 5.86406e-05 0.000173494)
(0.000259341 4.12705e-05 0.000143157)
(0.000249517 5.84553e-05 0.000135804)
(0.000276102 5.25273e-05 0.000159852)
(0.000310513 3.24425e-05 0.000186837)
(0.00029816 3.52435e-05 0.000224322)
(0.000337448 1.46829e-05 0.000245015)
(0.000330994 3.00063e-05 0.000218618)
(0.000293419 3.39396e-05 0.000236037)
(0.0003121 4.84354e-05 0.000173434)
(0.000324895 2.89637e-05 0.000188449)
(0.000297215 2.17146e-05 0.000319788)
(0.000275854 2.93665e-05 0.000330564)
(0.000307004 1.71584e-05 0.00036456)
(0.000259785 2.64192e-05 0.000342151)
(0.000282713 1.35892e-05 0.00035152)
(0.000235724 3.20834e-05 0.000330636)
(0.000339875 4.00303e-05 0.000382729)
(0.000355215 1.39837e-05 0.00033919)
(0.000336009 2.02188e-05 0.000316741)
(0.000289753 2.27695e-05 0.000307646)
(0.000316098 1.48387e-05 0.000405572)
(0.000317834 1.66064e-05 0.000356869)
(0.000341286 4.04307e-05 0.000440356)
(0.000352612 2.87923e-05 0.000300791)
(0.000366932 6.63584e-06 0.000360359)
(0.000360641 5.47599e-07 0.00030024)
(0.000377917 1.29064e-05 0.000356668)
(0.00038347 2.28894e-06 0.000314731)
(0.00034989 2.43819e-05 0.000404984)
(0.000359509 7.9781e-06 0.000439563)
(0.000380745 -1.43841e-05 0.000420243)
(0.000387971 2.72743e-05 0.00048429)
(0.000435689 8.33624e-06 0.000466955)
(0.000427918 -2.05836e-05 0.000400421)
(0.000419261 -2.4518e-05 0.000319556)
(0.000422741 1.89356e-06 0.000395015)
(0.000364309 6.31411e-06 0.000259226)
(0.000356215 4.1947e-06 0.00021615)
(0.00038277 1.11418e-05 0.000257815)
(0.00022543 5.94497e-05 0.000102967)
(0.000250492 5.59598e-05 0.000128704)
(0.000197342 5.98248e-05 7.77591e-05)
(0.000243589 6.22732e-05 9.68531e-05)
(0.00028198 4.35415e-05 0.000134054)
(0.000332518 2.63837e-05 0.000165427)
(0.000280948 5.47265e-05 0.000128242)
(0.000140135 5.12983e-05 4.6231e-05)
(0.000239624 7.22603e-05 6.34804e-05)
(5.70827e-05 2.35531e-05 4.43011e-05)
(8.44541e-05 3.56843e-05 3.75219e-05)
(0.000186998 7.05883e-05 3.34419e-05)
(0.000221875 6.38977e-05 8.76508e-05)
(0.000205074 3.73701e-05 2.41568e-05)
(0.000255784 5.36697e-05 8.76679e-05)
(0.000315863 4.17122e-05 6.37869e-05)
(0.000201187 6.34901e-05 3.19726e-05)
(0.000203205 5.0278e-05 4.31966e-05)
(0.000291021 5.62281e-05 5.38086e-05)
(0.000461499 -2.3927e-05 0.00032434)
(0.000494826 -3.86061e-05 0.000450067)
(0.000461532 -3.69402e-05 0.000378439)
(0.000505461 -2.90436e-05 0.000448638)
(0.000379332 1.84618e-05 0.000217193)
(0.000429646 -2.70636e-05 0.000281345)
(0.00039765 -1.43792e-06 0.000245693)
(0.000404547 -7.18672e-06 0.000268356)
(0.000373664 1.92707e-05 0.000169238)
(0.000407149 -1.79692e-06 0.000230574)
(0.000488349 -5.12625e-05 0.000244138)
(0.000543985 -4.12929e-05 0.000332783)
(0.000547107 -8.35315e-05 0.000385244)
(0.000523154 -5.59379e-05 0.000305634)
(0.000470304 -3.27747e-05 0.000341157)
(0.000360308 2.84369e-05 9.27184e-05)
(0.000384889 1.30728e-05 0.000117794)
(0.000426987 -2.64312e-05 0.00018198)
(0.000398004 8.05606e-06 0.000126524)
(0.000406403 -4.44226e-06 0.000146194)
(0.000319122 4.20993e-05 9.20033e-05)
(0.000372012 1.23444e-05 0.000106927)
(0.000531059 -4.35621e-05 0.00022908)
(0.000548127 -7.92782e-05 0.000265457)
(0.000605263 -0.000105098 0.000232393)
(0.00049322 -4.15876e-05 0.000200708)
(0.000455965 -1.67138e-05 0.000185877)
(0.000492544 -4.14307e-05 0.00017345)
(0.00028178 4.88673e-05 0.000479902)
(0.000297508 2.66499e-05 0.000489663)
(0.000332763 -2.36287e-05 0.000516871)
(0.000327465 1.08621e-05 0.000510221)
(0.000277444 6.34715e-05 0.000465758)
(0.000308522 3.51044e-06 0.0004638)
(0.000426065 -2.88694e-05 0.00063215)
(0.000296302 2.97277e-05 0.00048598)
(0.000325039 1.19032e-05 0.000498713)
(0.000367834 2.20573e-05 0.000566044)
(0.000357577 1.58098e-06 0.000506362)
(0.000326748 1.91387e-05 0.000469595)
(0.000355118 2.03145e-05 0.000514447)
(0.00045139 -1.04635e-05 0.000643616)
(0.000471205 2.11517e-05 0.000775711)
(0.000350374 4.50771e-05 0.000558881)
(0.000394062 4.61385e-05 0.000636946)
(0.000393333 6.04318e-05 0.000660748)
(0.000417345 7.11372e-06 0.000641074)
(0.000549919 -6.71253e-05 0.000776771)
(0.000503045 -9.06258e-05 0.000681453)
(0.000406508 7.85096e-05 0.000675544)
(0.000421147 6.28855e-06 0.00063643)
(0.000370229 2.69832e-05 0.000542932)
(0.000410872 2.11395e-05 0.000597812)
(0.00039977 -1.08607e-06 0.000535256)
(0.000349587 1.8511e-05 0.000472532)
(0.000391212 1.57746e-05 0.000529999)
(-3.62394e-05 -2.99225e-05 0.000161084)
(0.000477723 -5.04947e-05 0.000620553)
(0.000429156 3.75187e-07 0.000543704)
(0.000477685 2.09465e-05 0.000630019)
(0.000397318 1.31536e-05 0.000594689)
(0.000454568 -9.91337e-06 0.000615858)
(0.000519101 -1.81144e-05 0.000696437)
(0.000452415 -2.95149e-05 0.000539801)
(0.000427098 -2.17677e-05 0.00045646)
(0.000426961 2.11897e-05 0.000547297)
(0.000625858 -3.01949e-05 0.000957211)
(0.000425965 3.55258e-05 0.000667026)
(-3.63866e-05 -2.57548e-05 0.00014887)
(0.000452295 1.46393e-05 0.000670372)
(0.000516623 1.73491e-05 0.00077241)
(0.000606392 -3.8576e-05 0.00087772)
(0.000595887 -7.12889e-05 0.000797144)
(0.000422171 6.20255e-06 0.000590077)
(-4.15083e-05 -2.11933e-05 0.000160632)
(0.000508187 -0.000106641 0.000556049)
(0.000542937 -9.70943e-06 0.000716356)
(0.000587822 -2.87338e-05 0.000851049)
(0.000500222 -6.78412e-06 0.000712797)
(0.000562824 9.31589e-06 0.000799725)
(0.000621791 -4.00851e-05 0.000818691)
(0.00053188 1.68901e-05 0.000709022)
(0.000687307 -0.000107031 0.000857282)
(0.000577433 -6.74485e-05 0.000706781)
(0.000628293 -3.38821e-05 0.000827524)
(0.000476062 4.2887e-05 0.000752103)
(0.00047849 -7.66395e-06 0.000712211)
(0.000584839 -3.60792e-05 0.000850283)
(0.000646084 -1.72184e-05 0.000978168)
(0.000621543 -9.15616e-05 0.000895563)
(0.000560811 9.27421e-05 0.000884099)
(0.00067153 -6.17463e-05 0.00101878)
(0.00062407 0.000120538 0.000997009)
(0.00058292 3.13845e-05 0.000907823)
(0.000565137 1.15924e-05 0.000850335)
(0.000675375 -5.24399e-05 0.000973495)
(0.000541975 -1.53795e-05 0.000813051)
(0.000579511 -3.57664e-05 0.000805475)
(0.000670071 -6.15883e-05 0.000912677)
(0.000780221 -9.88775e-05 0.00102548)
(0.000582484 -6.22312e-05 0.000801676)
(0.00065446 -0.000108565 0.000775288)
(0.000711313 -1.87346e-05 0.000948123)
(0.000494549 -3.03049e-05 0.000512925)
(0.00043971 -5.98328e-05 0.000492119)
(0.000516587 -7.81485e-05 0.00050977)
(0.00051426 7.35016e-07 0.00063058)
(0.000592922 -4.65888e-05 0.000695246)
(0.000549398 -3.22038e-05 0.000574625)
(0.000536371 -7.87326e-05 0.000497977)
(0.000558163 -8.14548e-05 0.000403255)
(0.000547294 -4.47307e-05 0.000487024)
(0.000631231 -9.82483e-05 0.000585396)
(0.000612809 -0.000130849 0.000464412)
(0.000635978 -9.41218e-05 0.000567911)
(0.000655335 -0.000104774 0.000713526)
(-4.42256e-05 -1.70167e-05 0.000158862)
(0.000583387 -9.55252e-05 0.000599949)
(0.000626538 -7.09107e-05 0.000703148)
(0.000758103 -0.000175316 0.000848877)
(0.000682823 -0.000145617 0.00067198)
(0.000701202 -7.9637e-05 0.000813826)
(-4.7516e-05 -1.23256e-05 0.000160165)
(0.000716824 -0.000169271 0.000668985)
(0.000724657 -0.000213607 0.000499484)
(-3.60181e-05 -3.42822e-05 0.00018339)
(0.00068498 -9.54789e-05 0.000680481)
(0.000591067 -9.41222e-05 0.0004317)
(-4.00727e-05 -2.69879e-05 0.000186632)
(0.00060818 -0.000104176 0.000368182)
(0.000598751 -7.91284e-05 0.000425334)
(-3.43036e-05 -3.41083e-05 0.000168656)
(0.000706213 -0.000114185 0.000354061)
(-3.74542e-05 -1.66385e-05 0.000169993)
(-4.07478e-05 -2.85682e-05 0.000183454)
(0.000663925 -0.000178161 0.000419874)
(0.000678891 -0.000171514 0.000360708)
(-4.1908e-05 -2.71417e-05 0.000183135)
(0.000665109 -0.000100257 0.000522489)
(0.000547586 -0.00037588 0.000214026)
(-4.54441e-05 -1.97107e-05 0.000178409)
(0.000594551 -0.000412654 0.000143198)
(0.000481369 -0.000352216 0.000137328)
(-4.44632e-05 -2.03645e-05 0.000182525)
(0.0004088 -0.000325657 0.00017904)
(0.000470104 -0.000371233 0.000156321)
(-4.83569e-05 -1.29766e-05 0.000191223)
(0.000352067 -0.000300445 0.000122971)
(0.000428997 -0.000309158 0.000232567)
(-3.71863e-05 -1.95533e-05 0.000164523)
(-3.36891e-05 -1.73278e-05 0.000151741)
(0.000467124 -0.000348688 0.0001363)
(-3.93222e-05 -2.37327e-05 0.000154193)
(-4.11815e-05 -1.81384e-05 0.0001685)
(0.000289656 -0.00025428 0.000155768)
(-3.96294e-05 -1.57677e-05 0.000153052)
(-4.3555e-05 -1.31435e-05 0.000166872)
(0.000354417 -0.000312359 0.000151665)
(-4.21473e-05 -1.25399e-05 0.000151209)
(0.000256975 -0.000233684 0.000125339)
(0.000165874 -0.00017086 9.72657e-05)
(0.000258206 -0.000240224 0.000151097)
(0.00018563 -0.000168066 0.00012819)
(0.000154414 -0.000149245 0.0001054)
(0.000219054 -0.000183749 0.000138142)
(0.000159063 -0.00015524 0.000101404)
(0.000290075 -0.000220576 0.000201002)
(0.000327201 -0.000258445 0.000154779)
(0.000351557 -0.000335263 7.59747e-05)
(0.000496707 -0.000404079 9.70202e-05)
(0.000353258 -0.000282927 0.00013331)
(0.000195278 -0.000194832 7.51264e-05)
(0.000338218 -0.000307212 0.000110493)
(0.000245353 -0.000205424 0.000137562)
(0.000217127 -0.000203625 0.000138069)
(0.000250139 -0.000195395 0.000169673)
(0.000302853 -0.000239173 0.000131074)