/*--------------------------------*- C++ -*----------------------------------*\
  =========                 |
  \\      /  F ield         | OpenFOAM: The Open Source CFD Toolbox
   \\    /   O peration     | Website:  https://openfoam.org
    \\  /    A nd           | Version:  7
     \\/     M anipulation  |
\*---------------------------------------------------------------------------*/
FoamFile
{
    version     2.0;
    format      ascii;
    class       volScalarField;
    location    "2.25";
    object      p;
}
// * * * * * * * * * * * * * * * * * * * * * * * * * * * * * * * * * * * * * //

dimensions      [0 2 -2 0 0 0 0];

internalField   nonuniform List<scalar> 
382612
(
0.00227303
0.00218879
0.00214576
0.00215873
0.00204626
0.00250247
0.00227258
0.00205908
0.00194169
0.00183846
0.00192047
0.00191595
0.00190116
0.00209858
0.00205502
0.00227816
0.00219467
0.00232537
0.00218954
0.00223885
0.00228053
0.0023349
0.00238987
0.00251691
0.00248304
0.00244332
0.00241023
0.0031029
0.00317317
0.00323049
0.00327791
0.00305939
0.00304239
0.0030227
0.00299449
0.00285731
0.00233934
0.00229474
0.0024128
0.00247502
0.00253337
0.00258746
0.0025825
0.00255219
0.00251444
0.0024724
0.00238708
0.0024092
0.00244341
0.00247291
0.00258237
0.00253691
0.00248823
0.00243852
0.00234219
0.00232122
0.00228751
0.0022286
0.00234698
0.00233712
0.00243073
0.00250112
0.00253871
0.00286592
0.00244225
0.00224592
0.00272204
0.00289062
0.00299477
0.0032268
0.00326118
0.00327065
0.00327703
0.00363721
0.00362174
0.00360063
0.00356212
0.00340218
0.0030455
0.00322245
0.00329093
0.00333468
0.00336517
0.00378058
0.00378471
0.00378496
0.0037364
0.00343447
0.0025951
0.00283721
0.00289893
0.00292944
0.0029497
0.00312861
0.00314082
0.00315324
0.0031225
0.00289613
0.00236136
0.00229456
0.00238904
0.00243099
0.00247626
0.00252735
0.00242669
0.00240786
0.00238767
0.00237927
0.00222192
0.00226187
0.00230043
0.00233133
0.00256082
0.00250661
0.00245196
0.00240087
0.00229254
0.00208752
0.00206724
0.00211307
0.00214922
0.00217608
0.0023363
0.0022773
0.00222066
0.00216702
0.00204253
0.00187448
0.00202087
0.00228754
0.00233872
0.00236354
0.00237697
0.00259283
0.00259649
0.00260064
0.00259147
0.00262996
0.00259223
0.00255163
0.00253737
0.00252106
0.00250804
0.00203708
0.00201808
0.00199494
0.00196677
0.0021446
0.00218993
0.00222514
0.00225433
0.00227755
0.00224449
0.00221242
0.00218702
0.00220643
0.00215398
0.00209251
0.00209449
0.00211137
0.00212791
0.0020231
0.00211964
0.00215104
0.00191992
0.00193396
0.00195811
0.00230374
0.00250053
0.00177073
0.00185936
0.0021708
0.00188971
0.00194794
0.00194508
0.00194611
0.00195595
0.0019681
0.00197393
0.00263994
0.00265355
0.00267361
0.00268182
0.00257829
0.0018626
0.00187469
0.00187996
0.00189034
0.00189972
0.00245188
0.00247366
0.0025058
0.0025311
0.0024978
0.0021241
0.00228688
0.00234155
0.00235088
0.00235288
0.00235717
0.00206315
0.00206351
0.00206687
0.00207951
0.00155864
0.00157425
0.00159182
0.00160088
0.00213971
0.00212675
0.00211058
0.00209655
0.00211545
0.00155287
0.00152108
0.00206866
0.00196638
0.00153985
0.00179642
0.00202933
0.00173869
0.00200248
0.00195795
0.0017596
0.0014807
0.00182129
0.0018832
0.00165617
0.00153072
0.00181009
0.00188036
0.00175864
0.00200446
0.00200079
0.00186523
0.00176133
0.00199963
0.00195068
0.00202165
0.00211656
0.00220797
0.00211729
0.00224676
0.00236541
0.00215598
0.00204474
0.0021188
0.00214088
0.00217198
0.00220673
0.00252323
0.00251074
0.00248931
0.00243248
0.00284352
0.0028267
0.00281036
0.00279341
0.00344904
0.00343229
0.00341432
0.00337042
0.003159
0.00289354
0.00279363
0.00285825
0.00289219
0.0029063
0.00291989
0.00249476
0.00249199
0.00247847
0.00245472
0.00247172
0.00309911
0.00308947
0.00310958
0.00312863
0.00314297
0.00306197
0.00304252
0.00301281
0.0029879
0.00299506
0.00338694
0.00337586
0.00338077
0.00339897
0.00341422
0.00370119
0.00369863
0.00369334
0.00367281
0.00355436
0.00343972
0.00362157
0.00367001
0.00369345
0.00370756
0.00426913
0.00427182
0.00427379
0.0042312
0.00392021
0.00298648
0.00307945
0.00310746
0.00313738
0.00316306
0.00316224
0.00314766
0.00312736
0.00308418
0.00288265
0.00254688
0.00269468
0.00275053
0.00279007
0.00281688
0.00327144
0.00328936
0.00331457
0.00330565
0.00309218
0.00198108
0.00205813
0.00208224
0.00211406
0.00214278
0.00251707
0.00259722
0.00262405
0.00264255
0.00265529
0.00231083
0.00228363
0.00224829
0.00221606
0.00212682
0.00278054
0.00290231
0.00289722
0.00286602
0.00284115
0.00188577
0.00186712
0.00184274
0.00182375
0.00178208
0.00253008
0.00253714
0.00250836
0.00247336
0.00244892
0.00173409
0.00173069
0.00172619
0.00173503
0.00179817
0.00177048
0.00175007
0.00175541
0.00177212
0.00178601
0.00222417
0.00224794
0.00228071
0.00231638
0.00237101
0.00178453
0.0016917
0.00168197
0.00168912
0.00169431
0.00223786
0.00225389
0.00227681
0.00229675
0.00227992
0.00200759
0.00210804
0.00213346
0.00214161
0.00214312
0.00214483
0.0019581
0.00195648
0.00195572
0.00196345
0.00168079
0.00168354
0.00169084
0.00169458
0.00202809
0.00202448
0.00201896
0.00201278
0.00201135
0.00169054
0.00191006
0.00186792
0.00186442
0.00186916
0.00187152
0.00176193
0.00184829
0.00210549
0.00205669
0.00203417
0.00201965
0.00200928
0.00189945
0.00190144
0.00190274
0.00190116
0.00206928
0.0020684
0.0020656
0.00206434
0.00206926
0.00206933
0.00207004
0.002069
0.00192394
0.00192905
0.0019331
0.00193383
0.00207924
0.00208803
0.00209775
0.00210644
0.00213691
0.00193239
0.00206677
0.00208083
0.00199418
0.00166864
0.00190404
0.00193738
0.0017046
0.0016864
0.00195187
0.0019406
0.00158918
0.0021327
0.0021658
0.00207407
0.0019814
0.0018888
0.00206183
0.00171351
0.00171304
0.00179066
0.00196182
0.00210514
0.00204124
0.00202541
0.0020211
0.00201955
0.00195982
0.00195584
0.00194941
0.00194922
0.00198594
0.00226411
0.00224787
0.00223161
0.00222474
0.00222419
0.00221846
0.00222186
0.00222959
0.00224739
0.00229908
0.00211612
0.00209851
0.00209673
0.00209598
0.00209328
0.00209209
0.00209121
0.00208768
0.00208367
0.00208469
0.00187347
0.00187843
0.00188207
0.00188287
0.00199875
0.00199998
0.00200131
0.00200254
0.0020139
0.00186005
0.0020232
0.00200065
0.00199757
0.00199463
0.00199089
0.00194695
0.00199669
0.00200014
0.00196884
0.00197022
0.00197582
0.00197871
0.00212751
0.00212586
0.00212246
0.00212138
0.00214548
0.00227441
0.00227797
0.00227005
0.00226459
0.00226259
0.00216969
0.00216939
0.0021704
0.00218053
0.00222784
0.00223751
0.00221159
0.00220503
0.00220038
0.00219698
0.00205548
0.00205262
0.00204894
0.00204847
0.00209052
0.00208679
0.0020812
0.00207751
0.00207602
0.0020792
0.00208315
0.002086
0.00206652
0.0020664
0.0020684
0.00206885
0.00221982
0.00221383
0.00220519
0.00219945
0.0022234
0.00209029
0.00209411
0.00211744
0.00215259
0.00194562
0.00201835
0.00205998
0.00196484
0.00175459
0.00195611
0.00199092
0.00178127
0.00222417
0.00216731
0.00211865
0.00214965
0.00206015
0.00209124
0.00211139
0.00209552
0.00219532
0.00212194
0.00210704
0.00206891
0.00206471
0.00206873
0.00207184
0.00219478
0.00219186
0.00218698
0.00218227
0.00218914
0.00228432
0.00228195
0.00227867
0.00227722
0.00227661
0.00222802
0.00222899
0.00222947
0.00223077
0.00224867
0.00231889
0.00230939
0.00230835
0.00230741
0.00230671
0.00230903
0.00230191
0.00229206
0.00228265
0.00228844
0.00217801
0.00215172
0.00214713
0.00214349
0.00213925
0.00225833
0.00225081
0.00224123
0.00223137
0.002238
0.00214692
0.00209842
0.00209875
0.00210369
0.00210495
0.00210503
0.00210787
0.00210388
0.00209902
0.00210257
0.00213439
0.00213613
0.00213945
0.00214233
0.00210382
0.00210318
0.00210249
0.00210007
0.00209745
0.00214542
0.0021552
0.00211765
0.00214297
0.00217126
0.0019946
0.00204665
0.00212403
0.00209882
0.00215449
0.0021152
0.0020246
0.00198529
0.00181672
0.00192391
0.00206544
0.00211698
0.00204732
0.00204222
0.00203207
0.00199672
0.00211549
0.00217753
0.00221452
0.00216471
0.00209296
0.00209107
0.00209542
0.00209889
0.00210094
0.00224345
0.0022452
0.00224936
0.00225758
0.00226612
0.0023209
0.00231984
0.00231541
0.00231302
0.00231195
0.00224531
0.00224117
0.00223507
0.00222963
0.00224165
0.00233779
0.00235217
0.00235604
0.00235671
0.00235685
0.00242042
0.00242001
0.00242052
0.00241954
0.0024005
0.00231611
0.00231034
0.00231556
0.00232287
0.00232785
0.00242285
0.00242256
0.0024215
0.00241625
0.00239972
0.0023482
0.00235638
0.00236148
0.00236507
0.0023672
0.00221879
0.00221563
0.00221083
0.00220307
0.00218539
0.00212702
0.00210869
0.00212162
0.00212648
0.00212629
0.00212446
0.00214015
0.00213702
0.0021327
0.00212894
0.00218362
0.00218731
0.00219361
0.00220142
0.00214563
0.00214212
0.0021359
0.00212517
0.00210331
0.00216965
0.00226551
0.00228916
0.00229785
0.00230618
0.00231329
0.00233073
0.00232231
0.00231459
0.00230815
0.00228472
0.00216741
0.00211696
0.00214104
0.0021489
0.00215524
0.00216287
0.00221933
0.00220656
0.00219235
0.00218325
0.00218496
0.00220112
0.0022137
0.00222234
0.00219703
0.00218429
0.00217101
0.00215182
0.00209025
0.00214875
0.00227959
0.0021708
0.00205803
0.00207065
0.00234977
0.00221726
0.00207442
0.00209858
0.00222745
0.00214313
0.00207876
0.00207266
0.00200451
0.00202701
0.00213683
0.00225801
0.00216375
0.00211423
0.00203558
0.00205252
0.00178193
0.00191229
0.00186681
0.00169872
0.00149756
0.00176477
0.0018027
0.00158186
0.00166857
0.00185633
0.00189924
0.00173089
0.00174962
0.00193592
0.00191196
0.00168235
0.00188167
0.00192252
0.00204945
0.00206523
0.00219412
0.00212813
0.00210994
0.00210434
0.00210219
0.00209552
0.00209845
0.00210568
0.00212111
0.00213717
0.00220622
0.00219559
0.00218408
0.00217772
0.00217452
0.00203198
0.0020314
0.00202975
0.00202633
0.00202437
0.00207853
0.0020497
0.00203783
0.00203331
0.0020317
0.00210227
0.00210335
0.00210608
0.00211253
0.00212375
0.00216995
0.00216246
0.00216012
0.00216114
0.00216197
0.00218455
0.00218244
0.00217739
0.00217017
0.00216744
0.00223706
0.00225013
0.00226143
0.00226702
0.00226968
0.0023742
0.00237297
0.00237205
0.00237121
0.00236311
0.00240661
0.00241769
0.00242065
0.0024222
0.00242302
0.00249429
0.00249167
0.00248769
0.00248116
0.00246401
0.00251098
0.00253894
0.00254902
0.0025534
0.00255569
0.00241831
0.00241105
0.00240107
0.00239288
0.00238923
0.00241798
0.00244957
0.00246116
0.00246545
0.0024673
0.00238341
0.00238274
0.00237964
0.00237204
0.00234876
0.00246775
0.00252171
0.00253705
0.00253819
0.00253598
0.00225352
0.002241
0.00222655
0.0022156
0.00222266
0.00224729
0.00226521
0.0022813
0.00228049
0.00226343
0.0022453
0.00222354
0.00216742
0.00225485
0.00228223
0.00229406
0.00230927
0.00232246
0.00243923
0.00243609
0.00242929
0.00241849
0.00239199
0.00242264
0.00250153
0.00252224
0.00253395
0.00254449
0.00234638
0.00232652
0.00230528
0.00229124
0.00220664
0.00222882
0.00225159
0.00227474
0.00228317
0.00225948
0.0022342
0.0022034
0.00225292
0.00227414
0.00229429
0.00231132
0.00258791
0.00258741
0.00258349
0.00256143
0.00247572
0.00219991
0.00212961
0.00219892
0.00228041
0.00239799
0.00224349
0.00215922
0.00228936
0.00218905
0.00215087
0.00212645
0.00213766
0.00222659
0.00211523
0.00224783
0.00250403
0.00233568
0.0021436
0.00216334
0.00224796
0.00195411
0.0019716
0.00195882
0.00191243
0.00151075
0.00178467
0.00180522
0.00158833
0.00166917
0.00189309
0.00195545
0.00180559
0.00194933
0.00210718
0.00204418
0.00205497
0.00204207
0.00201551
0.00195674
0.0018687
0.0017419
0.00157599
0.00149267
0.00151283
0.00152327
0.00152624
0.00152618
0.00178865
0.00178691
0.0017878
0.00179755
0.00181065
0.00183359
0.00184538
0.00185764
0.00186423
0.00186731
0.00204923
0.00204716
0.002046
0.00204787
0.00204185
0.00207113
0.00211948
0.00212207
0.00211892
0.0021172
0.00205902
0.00205722
0.00205252
0.00204181
0.00200729
0.00220567
0.00221679
0.00221761
0.0022195
0.00222169
0.00232124
0.00232218
0.00232409
0.00232253
0.00228549
0.00222993
0.00226101
0.00227267
0.00227866
0.00228115
0.00238322
0.00237912
0.00237422
0.00237065
0.0023638
0.00237612
0.00239977
0.00241369
0.00242165
0.00242533
0.00260925
0.00260665
0.00260511
0.00260266
0.00257244
0.00264155
0.00266172
0.00266579
0.00266906
0.00267205
0.00259374
0.00258609
0.00257504
0.00256249
0.00253814
0.00258855
0.00262796
0.00263943
0.00264278
0.00264318
0.00242636
0.00241494
0.00240058
0.00239173
0.00240375
0.0025518
0.0025762
0.00258314
0.00258998
0.00259583
0.00263847
0.00263628
0.00263116
0.0026164
0.0025734
0.00271856
0.0027356
0.00274342
0.00275464
0.00276408
0.00266207
0.00265608
0.00264805
0.00263867
0.00261341
0.00242024
0.00246306
0.00248356
0.00249959
0.00251086
0.0024785
0.00247046
0.00246124
0.00244758
0.00239842
0.00226557
0.00216062
0.00218089
0.00219681
0.0022132
0.00223099
0.00231549
0.00230051
0.00228437
0.00227649
0.00231812
0.0023335
0.00235295
0.00236901
0.00232759
0.00230441
0.00228099
0.00225444
0.00220592
0.00229531
0.0022812
0.00220344
0.0021365
0.00222271
0.00228185
0.00214045
0.00220807
0.00236502
0.0022995
0.0021103
0.00214814
0.00227122
0.00236361
0.00213609
0.00215302
0.00240241
0.00214335
0.00208526
0.00211116
0.00220639
0.00226375
0.0021396
0.00208389
0.00219434
0.00194741
0.00200182
0.00213734
0.00225483
0.00227663
0.0023936
0.00242336
0.0023745
0.00226004
0.00213055
0.00198413
0.00181767
0.00163403
0.00146839
0.00127768
0.00111061
0.00105475
0.00108023
0.00108424
0.00108061
0.00107618
0.0013146
0.00131355
0.00131527
0.00132268
0.00132044
0.00148523
0.00151508
0.00152797
0.00153064
0.00152942
0.00176157
0.00175919
0.0017585
0.00176237
0.00175436
0.00191065
0.00190981
0.00190741
0.00190825
0.00190945
0.00193303
0.00192919
0.00192451
0.00192158
0.00190793
0.00212503
0.00212595
0.00212663
0.00213063
0.00213435
0.00218446
0.00217938
0.00217297
0.00216678
0.0021521
0.00235523
0.00235902
0.00236438
0.00237109
0.00237608
0.00250371
0.00250047
0.002493
0.00247883
0.00245157
0.00253986
0.00255383
0.00256318
0.00257169
0.00257767
0.00271037
0.00270798
0.00270373
0.00269201
0.0026461
0.00271596
0.00274406
0.00275583
0.00276278
0.00276777
0.00277585
0.00277025
0.00276147
0.00274804
0.00272436
0.00260764
0.00263696
0.00265384
0.00266913
0.00268049
0.00279291
0.0027881
0.00278273
0.00277593
0.00275233
0.0026555
0.00269889
0.00267939
0.00259211
0.00268919
0.00272738
0.00273336
0.00273494
0.00273718
0.00267696
0.00267144
0.00266146
0.00264687
0.00262654
0.00279354
0.00281639
0.00282193
0.00282767
0.00283308
0.00287672
0.00287277
0.00286762
0.00285887
0.00282554
0.00278287
0.00281839
0.00282828
0.00283585
0.00284162
0.00264768
0.00263704
0.0026236
0.00261216
0.00259453
0.00255544
0.00259963
0.00261488
0.0026223
0.00262659
0.00246948
0.00246655
0.00246128
0.00244714
0.00240654
0.00220527
0.00212332
0.00216209
0.00218419
0.00220257
0.00222079
0.00226811
0.00225657
0.00224128
0.00222799
0.00223433
0.00224131
0.00225322
0.00226286
0.00222426
0.00221738
0.0022089
0.0021949
0.00216492
0.00223838
0.00227729
0.00218364
0.0021875
0.00226594
0.00235204
0.00246355
0.00248325
0.00244704
0.00246834
0.0024787
0.00248375
0.00248687
0.00238386
0.00238019
0.00237467
0.00237078
0.00238172
0.00228386
0.00230992
0.00231509
0.0023127
0.00230936
0.00225023
0.00224848
0.00224722
0.00224549
0.00225036
0.00213311
0.00205365
0.00205263
0.00205512
0.00205695
0.00205968
0.00213913
0.00213867
0.00213708
0.00213433
0.00219119
0.00219215
0.00219738
0.00220227
0.00213674
0.00213417
0.00213123
0.00212502
0.00211291
0.00219884
0.00222805
0.00211661
0.002084
0.00215324
0.00219159
0.0020959
0.00207596
0.00213708
0.0021251
0.00206281
0.00207871
0.00212724
0.00188803
0.00197558
0.00200352
0.00199811
0.00205738
0.00205401
0.00204273
0.00207722
0.00204967
0.00203164
0.00205466
0.00205059
0.00211461
0.00205904
0.00192028
0.00181911
0.00159028
0.00186334
0.00189801
0.0017283
0.00213565
0.00203992
0.00191918
0.00185509
0.00168622
0.00185399
0.00181819
0.00159924
0.00120265
0.00170389
0.00168445
0.00121687
0.00113864
0.00166488
0.00171515
0.00133895
0.00129693
0.00170137
0.00168244
0.00125982
0.00153236
0.00180882
0.00187437
0.00159268
0.00148621
0.00180633
0.00175682
0.00137521
0.00129182
0.0017215
0.00179933
0.00147399
0.00144482
0.00179489
0.00187812
0.0015528
0.00150952
0.0016103
0.00155178
0.00161905
0.00155293
0.00154578
0.00154756
0.00154655
0.00164554
0.00164329
0.00164005
0.00164632
0.00170056
0.00220865
0.00209715
0.00206496
0.00204615
0.00203438
0.00169989
0.00169702
0.00169389
0.00170818
0.00181396
0.00214984
0.00211909
0.00209199
0.00207386
0.00206332
0.00189557
0.00188202
0.00186664
0.00186542
0.00193346
0.00176676
0.00162613
0.0015002
0.00157504
0.00151608
0.00150785
0.00150848
0.00150666
0.00173337
0.00173506
0.00173521
0.00173794
0.0017827
0.0021175
0.00204568
0.00201913
0.00200806
0.00200276
0.00180513
0.00180235
0.0017992
0.00180913
0.00188661
0.00215261
0.00213717
0.00211712
0.00210451
0.00209728
0.00189113
0.0018857
0.00188036
0.00189229
0.00199699
0.00187981
0.00180303
0.00173842
0.00178475
0.00179106
0.00172627
0.00171447
0.00171497
0.0017167
0.00195089
0.00195631
0.00196704
0.00198685
0.00200545
0.00203536
0.00200884
0.00199208
0.00198431
0.00198084
0.00189481
0.00189301
0.00189075
0.00189523
0.00193339
0.00200293
0.00194369
0.00193691
0.00193927
0.00194138
0.00195037
0.00208609
0.00201714
0.001984
0.00183861
0.00181134
0.00177643
0.00177395
0.00177757
0.0017802
0.00201363
0.00201521
0.00202279
0.00204013
0.00205724
0.00203973
0.00202358
0.00201363
0.00201147
0.00201228
0.00184601
0.00184435
0.00184004
0.00183319
0.00183556
0.00186603
0.00183623
0.00182256
0.001819
0.00181875
0.00153855
0.00153722
0.00153284
0.00152273
0.00150536
0.00145408
0.001459
0.00145185
0.0014485
0.00144717
0.00134006
0.0013406
0.00134271
0.00135105
0.00135946
0.00115715
0.00116617
0.00116034
0.00115941
0.0011609
0.00111765
0.00112522
0.00113552
0.00114167
0.00112149
0.000889618
0.000859196
0.00085136
0.000849144
0.000848234
0.000855211
0.00085503
0.000857012
0.000863639
0.000887563
0.00107096
0.0010726
0.00107537
0.00107085
0.00106368
0.00125097
0.00124981
0.00125042
0.00125774
0.00127311
0.00148189
0.00147129
0.00146923
0.0014714
0.00147414
0.00171825
0.00172111
0.00172134
0.00171178
0.00167797
0.00197397
0.00199687
0.00199268
0.00198563
0.00198204
0.00199002
0.00199371
0.00199355
0.00198244
0.00195671
0.00222083
0.00222732
0.00222288
0.00222055
0.00222151
0.00250142
0.00250072
0.00250083
0.00249673
0.00246193
0.0024551
0.00248104
0.00249526
0.00250212
0.0025042
0.00258981
0.00258137
0.00257174
0.00256626
0.00257532
0.00266105
0.00268709
0.00269207
0.00269417
0.00269632
0.00277849
0.00277485
0.00277054
0.00276522
0.00274307
0.0026826
0.00270587
0.00271717
0.00272521
0.00273076
0.00276161
0.00275579
0.00274776
0.00273779
0.00271537
0.00268911
0.00270641
0.00271687
0.00272539
0.00273151
0.00271858
0.00271641
0.00271312
0.00270629
0.00269546
0.00255923
0.00256556
0.00257129
0.00257487
0.00257647
0.00252904
0.00252874
0.00253081
0.00253912
0.0025561
0.00245038
0.00243413
0.00242555
0.00242259
0.00242155
0.00228877
0.00228966
0.00229272
0.00230213
0.0023283
0.00222255
0.00219366
0.00219125
0.00219243
0.00219401
0.00216012
0.00216191
0.00216486
0.00216806
0.00218209
0.00204973
0.00199403
0.00199363
0.00199443
0.00199569
0.00199615
0.00207514
0.00207928
0.00208315
0.00207786
0.00211079
0.00211114
0.00210985
0.00210878
0.00202918
0.00202746
0.00202639
0.00202876
0.00204381
0.00210945
0.00210105
0.00203828
0.00206402
0.00214169
0.00227952
0.00210084
0.00203211
0.00207148
0.00194144
0.00200158
0.00198762
0.00191764
0.00188617
0.00194832
0.0019778
0.0019526
0.00197591
0.00199818
0.00201249
0.00198995
0.00191256
0.00196543
0.00201798
0.00200916
0.00197622
0.00198001
0.00198555
0.0019908
0.00189107
0.00185561
0.00185886
0.00189584
0.00194979
0.00199318
0.00198457
0.00189148
0.00171717
0.00148951
0.00123665
0.000996611
0.000813692
0.000675069
0.000582613
0.000655313
0.000633233
0.000627578
0.000626133
0.0006254
0.000744053
0.000753191
0.000762557
0.000768401
0.00077127
0.000941779
0.00092278
0.000909454
0.000900121
0.000894456
0.000983823
0.000994147
0.00100452
0.0010068
0.00099995
0.0011016
0.00105278
0.00104641
0.00105097
0.00105591
0.00132739
0.00133694
0.00134565
0.0013418
0.00132399
0.00149467
0.00148869
0.00148718
0.00148991
0.00149201
0.00175176
0.00174785
0.00174353
0.00174332
0.00175569
0.00183786
0.00185289
0.00185002
0.00184622
0.00184359
0.00192225
0.00192836
0.00193194
0.00192249
0.00189012
0.002062
0.00204633
0.00204946
0.00206055
0.00206996
0.00234263
0.00233789
0.00233339
0.00232949
0.00232414
0.00236412
0.00238672
0.0023915
0.00239209
0.00239281
0.00239566
0.00239527
0.00239204
0.00238102
0.0023629
0.00250964
0.00250621
0.00250946
0.00251877
0.00252744
0.00265949
0.00265384
0.00264671
0.00264117
0.00263501
0.00258673
0.00259803
0.00260263
0.00260393
0.00260362
0.00263352
0.00263336
0.00263234
0.00262989
0.00261971
0.00251725
0.00249751
0.00249662
0.00249966
0.0025023
0.00261471
0.00261268
0.00261285
0.00261869
0.00262365
0.00252265
0.00252084
0.00252014
0.00251799
0.00251621
0.00241942
0.00242043
0.00242067
0.0024198
0.00243134
0.00230989
0.00229694
0.00229858
0.0023012
0.00230274
0.00223284
0.00223135
0.00222907
0.00222444
0.0022189
0.00202448
0.0020303
0.00204029
0.00204779
0.00205209
0.00211201
0.00210832
0.00210272
0.00209195
0.00206485
0.0021778
0.00216434
0.00215511
0.00214815
0.0021439
0.00202885
0.00203777
0.00204659
0.00204583
0.00197567
0.00197535
0.00197622
0.00197633
0.00197473
0.00197402
0.00197221
0.00197141
0.00199258
0.00199458
0.00198729
0.00197942
0.00218967
0.00219329
0.00219972
0.00220347
0.00218632
0.00196745
0.00198811
0.00204169
0.00200467
0.0019477
0.00201535
0.00200691
0.00193519
0.00189727
0.00200903
0.00201624
0.00201545
0.00201093
0.00200784
0.00190315
0.00190172
0.00189801
0.00189399
0.0019963
0.00199627
0.00198687
0.00198021
0.0018458
0.00184616
0.00184476
0.00183829
0.00183892
0.00209984
0.00202145
0.00200503
0.00199458
0.00198855
0.00198686
0.00198889
0.00199279
0.0020033
0.00212799
0.00190309
0.00197944
0.00195807
0.00195533
0.00195449
0.00195217
0.00194367
0.00195143
0.00196008
0.00195899
0.00194194
0.0019511
0.00195016
0.00194933
0.00195888
0.00196066
0.0019621
0.00196143
0.00194966
0.00186264
0.00188102
0.00198784
0.00201477
0.00199403
0.00188443
0.00196229
0.00195824
0.00186396
0.00212332
0.00203065
0.0019992
0.00208011
0.00204935
0.0019963
0.00200941
0.00198527
0.00190111
0.00186224
0.00182507
0.00174038
0.00169174
0.00164974
0.00163201
0.00163034
0.00162024
0.00155825
0.00143285
0.00126313
0.00107584
0.000906628
0.000775892
0.000656662
0.000712898
0.000717896
0.000713501
0.000704614
0.000697251
0.000612253
0.000610307
0.000608911
0.000613709
0.000650261
0.000856827
0.000877798
0.00087436
0.000862228
0.000850536
0.000840071
0.000838993
0.000837654
0.000838833
0.000853168
0.0010505
0.00101806
0.00101207
0.00101158
0.00101187
0.00130653
0.00131542
0.00132336
0.00131997
0.00129166
0.00140246
0.00136416
0.00136214
0.00137077
0.00137902
0.0017005
0.0016983
0.00169569
0.00169573
0.00170395
0.00172313
0.00173172
0.00173251
0.00173115
0.00173086
0.0017861
0.00179262
0.00179687
0.00179092
0.00177016
0.00200039
0.00197384
0.0019732
0.00198293
0.00199327
0.00223965
0.00223702
0.00223457
0.00223789
0.00225621
0.0021607
0.00216717
0.00217015
0.00216888
0.00216713
0.00215196
0.00215473
0.00215614
0.00215429
0.00216425
0.0024021
0.00238212
0.00237302
0.00237535
0.00238113
0.00247178
0.00246805
0.0024679
0.00248135
0.00250599
0.0025946
0.00256513
0.00255257
0.00255127
0.00255341
0.00236669
0.00236931
0.00236988
0.00236747
0.0023783
0.00237634
0.00236521
0.00236865
0.00236971
0.00236917
0.00232249
0.00232284
0.00232303
0.00232426
0.00234117
0.00226667
0.00225798
0.00225663
0.00225559
0.00225515
0.00220713
0.00220824
0.00221017
0.00221155
0.0022081
0.0021371
0.00213837
0.0021372
0.00213518
0.00213384
0.00202469
0.00201991
0.00201169
0.00199949
0.00198689
0.00193528
0.00192591
0.00192975
0.00193481
0.0019382
0.00206775
0.00207559
0.00208796
0.00210174
0.00210925
0.00194472
0.00197137
0.00196789
0.00195942
0.00195168
0.00193691
0.00193901
0.0019396
0.00193824
0.00194072
0.00201551
0.00199657
0.00198967
0.00198451
0.00198139
0.00193181
0.00178773
0.00205766
0.00202473
0.00179031
0.00220124
0.00185333
0.00185853
0.00235834
0.00191493
0.00183317
0.00249467
0.00181076
0.00214741
0.00194912
0.00238166
0.00195661
0.00193651
0.00179162
0.00167203
0.00151086
0.00140627
0.00131098
0.00123245
0.00114898
0.00105102
0.000917559
0.000794114
0.00067404
0.000592162
0.000517076
0.000533325
0.000522118
0.000516641
0.000511484
0.000507319
0.000496173
0.000505938
0.000515932
0.000522975
0.000532914
0.000704241
0.000666112
0.000650688
0.000647388
0.000647975
0.00082414
0.000828938
0.000837814
0.000855612
0.000895773
0.000960183
0.000944929
0.00094082
0.000931163
0.000920968
0.00119193
0.00118851
0.00118987
0.00121008
0.00126652
0.0015162
0.00147033
0.00145278
0.00144719
0.00144559
0.00153571
0.00154419
0.00155164
0.00155418
0.00157326
0.00190427
0.00185865
0.00184298
0.00184528
0.00185164
0.00206629
0.00206592
0.00206966
0.0020849
0.00212233
0.00189172
0.00186312
0.00185869
0.00185762
0.00185679
0.00204202
0.00204293
0.00204519
0.00204904
0.00206319
0.00216696
0.00215399
0.00214878
0.00214545
0.00214348
0.00222521
0.00222945
0.00223623
0.00224021
0.00223512
0.00223056
0.00223071
0.00222608
0.00221893
0.00221399
0.00224986
0.00225763
0.0022686
0.00227619
0.00227209
0.00217433
0.00216246
0.00215956
0.00215859
0.00215852
0.002049
0.00204917
0.00204922
0.00205103
0.00206414
0.00208753
0.00209886
0.00210205
0.002104
0.00210563
0.00206532
0.00206655
0.0020689
0.00206953
0.00205444
0.00193493
0.00191321
0.00191128
0.00191458
0.0019173
0.00208515
0.00209633
0.00211291
0.00212487
0.0021021
0.00191274
0.00185121
0.00184809
0.00185577
0.00186156
0.00189322
0.00189165
0.00188865
0.0018896
0.00191978
0.00185851
0.00182185
0.00181517
0.00181349
0.00181175
0.00193124
0.00193999
0.00195257
0.00196499
0.00197111
0.00183264
0.00187883
0.00187195
0.00185885
0.00184829
0.00189958
0.00190966
0.00192596
0.00193774
0.00188715
0.00181218
0.00180679
0.00180916
0.001809
0.00180749
0.00197987
0.00198689
0.00199383
0.00199429
0.00197711
0.00197818
0.00189233
0.00182491
0.0019889
0.00198931
0.00183525
0.00185502
0.00185487
0.00185014
0.00184526
0.00195516
0.00196091
0.00196657
0.00197259
0.00199533
0.00187481
0.00182331
0.00196193
0.00193565
0.001791
0.00186567
0.00195268
0.00194528
0.0018081
0.00179803
0.00194096
0.00198121
0.00196397
0.00222544
0.00207979
0.0020622
0.00217861
0.00215559
0.00204862
0.00196579
0.00189772
0.00192792
0.00198876
0.00198521
0.0019527
0.00196899
0.00200275
0.00198653
0.0019327
0.00193366
0.00197836
0.00200113
0.00199275
0.00204395
0.00201325
0.00203656
0.0020678
0.00197874
0.00201468
0.00198399
0.00196679
0.00201835
0.00199829
0.00199809
0.00201652
0.00199433
0.00196366
0.00189764
0.00176584
0.00151688
0.00179866
0.00180942
0.00154378
0.00156698
0.00181726
0.00187781
0.00186948
0.00167601
0.00180278
0.00183037
0.00159062
0.00158282
0.00181846
0.00184439
0.00176062
0.00186198
0.00190154
0.00190438
0.00186912
0.00204326
0.00196549
0.00195395
0.00205309
0.00240876
0.00207268
0.00194798
0.0020118
0.00207154
0.00201529
0.00177185
0.00137233
0.00093748
0.000626278
0.000618406
0.000770517
0.00120371
0.00149795
0.00189893
0.00214022
0.00218376
0.00220377
0.00221736
0.00255072
0.00256581
0.00258103
0.00257987
0.00248976
0.00184515
0.00198083
0.00199997
0.00199857
0.001992
0.00264414
0.00266801
0.0026964
0.00269818
0.00259166
0.00189648
0.00192694
0.00193225
0.0019344
0.00193311
0.00270931
0.00273604
0.0027729
0.00279652
0.0026973
0.00262881
0.00284078
0.00286837
0.00285958
0.0028476
0.0020263
0.00202938
0.00202683
0.00200703
0.0018978
0.00151127
0.00166737
0.00167815
0.00167804
0.00167719
0.00220224
0.0022139
0.0022265
0.00223226
0.00223351
0.00161113
0.00161496
0.00161914
0.00162121
0.00161827
0.00151539
0.00151663
0.00151792
0.00151962
0.00149003
0.00213782
0.00205787
0.00202917
0.00201151
0.00199897
0.00192529
0.00194201
0.00196915
0.00200503
0.00201318
0.00199582
0.0018954
0.00186915
0.00185784
0.00185096
0.00183441
0.00184463
0.00186327
0.00189428
0.00194766
0.00180185
0.00171162
0.00169812
0.0017024
0.00170737
0.00152821
0.00147687
0.00147005
0.00147007
0.00146825
0.00161222
0.00161103
0.00160802
0.00161036
0.00164977
0.00194742
0.00191379
0.00188951
0.00187527
0.0018682
0.00182486
0.00182571
0.00183064
0.00185418
0.00195526
0.00182605
0.00181766
0.00181909
0.00182024
0.00182031
0.00183378
0.00183185
0.00182768
0.00182409
0.00183663
0.00186368
0.00177238
0.00174115
0.00159675
0.00155427
0.00153898
0.00154281
0.00154736
0.00154963
0.00183246
0.00183628
0.00184433
0.00186276
0.00188694
0.00191538
0.00188373
0.00186497
0.00185749
0.00185464
0.00157797
0.00157727
0.00157462
0.00156771
0.00155526
0.00155299
0.0015472
0.00153748
0.00153167
0.00152834
0.0014086
0.00141237
0.00142124
0.00143747
0.00143806
0.00126658
0.0012797
0.00127171
0.00126754
0.00126685
0.00100139
0.00100215
0.000999168
0.000987712
0.000960504
0.000915913
0.000938517
0.000947227
0.000949136
0.000947532
0.000818649
0.00082081
0.00082572
0.000834339
0.000834894
0.000779633
0.000774926
0.000768189
0.000764192
0.000762199
0.000723809
0.000730764
0.00074078
0.000752622
0.000765776
0.000629358
0.000634211
0.000633956
0.000629933
0.000625028
0.000550762
0.000551539
0.00055309
0.000556665
0.00056307
0.000573448
0.000553358
0.000546457
0.000543283
0.000541511
0.000563528
0.000565089
0.000568996
0.000577627
0.000597754
0.000693036
0.000703892
0.000700195
0.000690726
0.000681974
0.000652494
0.000654018
0.000656196
0.000661625
0.000682391
0.000819078
0.000786542
0.000780137
0.000780329
0.000780728
0.000770766
0.000659912
0.00071612
0.000686371
0.000675717
0.000671617
0.000670028
0.000651599
0.000595822
0.000615654
0.000631756
0.000632335
0.000627507
0.000622649
0.000539634
0.000538549
0.00053787
0.000542014
0.000571513
0.000593704
0.000560027
0.000552926
0.000551717
0.000551729
0.000577625
0.000576646
0.000575924
0.000578401
0.000599668
0.000534011
0.000517572
0.000515894
0.000518119
0.000519875
0.000567621
0.000568104
0.000570347
0.00057885
0.000604358
0.000729888
0.000733952
0.000728047
0.000715796
0.000704758
0.000755862
0.000751347
0.000747894
0.000754036
0.000790435
0.000999418
0.000969243
0.000957475