/*--------------------------------*- C++ -*----------------------------------*\
  =========                 |
  \\      /  F ield         | OpenFOAM: The Open Source CFD Toolbox
   \\    /   O peration     | Website:  https://openfoam.org
    \\  /    A nd           | Version:  7
     \\/     M anipulation  |
\*---------------------------------------------------------------------------*/
FoamFile
{
    version     2.0;
    format      ascii;
    class       volVectorField;
    location    "2.25";
    object      wallShearStress;
}
// * * * * * * * * * * * * * * * * * * * * * * * * * * * * * * * * * * * * * //

dimensions      [0 2 -2 0 0 0 0];

internalField   uniform (0 0 0);

boundaryField
{
    outlet1
    {
        type            calculated;
        value           uniform (0 0 0);
    }
    Wall
    {
        type            calculated;
        value           nonuniform List<vector> 
40276
(
(0.000199534 5.5859e-05 0.000217621)
(-0.00018479 -5.17099e-06 0.000415458)
(-0.000187972 -4.81645e-06 0.000406622)
(0.000217101 -0.00022897 0.000166357)
(0.000164585 -0.000164519 0.000145525)
(0.000113173 -0.000122446 0.000145238)
(9.03136e-05 -7.76484e-05 0.000145363)
(0.000101143 -5.52818e-05 0.000159348)
(8.26382e-05 -3.40128e-05 0.000153419)
(8.39598e-05 -4.8309e-05 0.00015945)
(0.000500725 4.71438e-05 0.000500685)
(0.000594716 1.78073e-05 0.000546177)
(0.000588312 2.33962e-05 0.000943493)
(0.000566031 2.90981e-05 0.000874666)
(0.00023906 2.14716e-05 0.000242211)
(0.000226085 3.71275e-05 0.000277844)
(0.000238761 5.61354e-05 0.000196282)
(0.000248394 4.32023e-05 0.000137728)
(1.82258e-05 -0.000170335 3.76946e-05)
(3.12541e-05 -0.000212482 5.99505e-05)
(-9.78974e-05 2.55551e-05 0.00019973)
(-0.000125187 2.9601e-05 0.000189195)
(-9.82187e-05 2.69383e-05 6.54161e-05)
(-0.000114916 2.50392e-05 6.20674e-05)
(-8.73294e-05 2.0827e-05 4.21742e-05)
(-9.88697e-05 2.18746e-05 3.6804e-05)
(-7.35409e-05 3.22963e-05 2.8398e-06)
(-7.53706e-05 3.18796e-05 2.09186e-06)
(-0.000197654 6.29889e-05 5.4312e-05)
(-0.000159217 4.81941e-05 4.36965e-05)
(-0.000202671 6.659e-05 0.000138509)
(-0.000240968 8.40768e-05 0.000149398)
(-5.27375e-05 -3.09099e-06 0.000160174)
(-4.69709e-05 -4.78648e-06 0.0001489)
(-3.73739e-05 9.03271e-06 4.82092e-06)
(-3.7374e-05 9.97073e-06 4.71816e-06)
(0.000582581 4.46064e-05 9.10969e-05)
(0.00061953 1.47387e-05 7.54986e-05)
(0.00120116 0.00027781 0.000180438)
(0.0014184 0.000387239 0.000198053)
(0.000972129 3.3527e-05 3.85447e-06)
(0.000886419 3.53469e-07 2.60766e-05)
(4.04977e-05 -1.94041e-05 -0.000532795)
(6.22053e-05 -1.82184e-05 -0.000520729)
(4.05546e-05 1.452e-06 -0.000514807)
(2.70403e-05 -1.01972e-05 -0.00046578)
(-1.03337e-05 3.55575e-06 -0.000472736)
(-4.2038e-06 -5.21872e-06 -0.00041242)
(-3.3346e-05 -6.8898e-07 -0.000381221)
(-4.64628e-05 2.87742e-06 -0.000341923)
(-4.32258e-05 -4.514e-06 -0.000307519)
(-6.42483e-05 3.89528e-06 -0.000318344)
(-6.55898e-05 -2.17848e-06 -0.000278445)
(-7.36753e-05 5.95609e-06 -0.000278792)
(0.000500336 7.31569e-05 0.00021207)
(0.000493152 8.53889e-05 0.000166948)
(-0.000122728 5.1406e-05 0.000247693)
(6.21216e-05 2.16439e-05 0.000185058)
(-0.000129807 4.96335e-05 0.000252283)
(-0.000525287 4.67978e-05 -0.000500225)
(-0.000559351 2.82639e-05 -0.000515709)
(1.84814e-05 3.36799e-05 0.000283103)
(-1.24913e-05 -1.14781e-05 0.000219383)
(2.11283e-05 -5.96305e-07 1.50662e-05)
(1.96158e-05 -4.86912e-07 1.57295e-05)
(1.96031e-05 -1.84647e-07 1.46157e-05)
(1.82503e-05 -3.36187e-07 1.34684e-05)
(2.10334e-05 -4.36375e-07 1.52425e-05)
(-0.000112001 6.42747e-07 -0.000102908)
(-0.000122804 1.35285e-05 -0.000111122)
(-8.22541e-05 9.3117e-06 -0.000253564)
(-7.43176e-05 -2.06371e-06 -0.000259694)
(-6.37313e-05 4.75933e-06 -6.30062e-05)
(-6.44467e-05 4.82873e-06 -6.01858e-05)
(-5.65513e-05 4.29046e-06 -5.50713e-05)
(-5.65429e-05 6.11451e-06 -5.37365e-05)
(-6.31232e-05 2.99368e-06 -5.74874e-05)
(1.87649e-05 -9.46236e-07 -9.10607e-06)
(1.61188e-05 -1.10155e-06 -1.32168e-05)
(5.09814e-06 2.75941e-06 -5.67451e-07)
(6.13752e-06 3.46354e-07 -3.75523e-07)
(9.43628e-06 1.4674e-07 -6.49226e-07)
(2.39454e-05 -1.27578e-05 1.65064e-05)
(2.25052e-05 -1.40585e-05 1.67578e-05)
(1.63689e-05 -3.18601e-05 1.04225e-05)
(1.71004e-05 -8.71171e-08 1.43592e-05)
(1.59747e-05 -2.29323e-07 1.30582e-05)
(1.44887e-05 -2.5252e-07 1.40546e-05)
(1.41437e-05 -3.30014e-05 9.46058e-06)
(1.38087e-06 -3.97693e-05 2.92615e-06)
(-7.3368e-08 -3.86347e-05 2.37606e-06)
(-2.87816e-05 -1.11427e-06 -2.63077e-05)
(1.37948e-05 -8.93896e-08 1.28174e-05)
(1.1865e-05 -2.98578e-07 1.37513e-05)
(1.15538e-05 -8.82275e-08 1.26582e-05)
(9.07984e-06 2.24947e-08 1.21816e-05)
(6.69902e-06 -5.22755e-08 1.17228e-05)
(4.50095e-06 -1.11618e-07 1.14146e-05)
(4.2052e-07 2.34474e-07 9.27108e-06)
(-1.388e-06 1.24884e-07 8.73701e-06)
(-3.09633e-06 -3.16932e-08 8.22794e-06)
(-8.27577e-06 2.95857e-07 4.16296e-06)
(-9.22264e-06 1.28156e-07 3.21236e-06)
(-3.1736e-05 3.35794e-06 -2.80758e-05)
(-1.00817e-05 5.98431e-08 2.17294e-06)
(-3.07426e-06 -4.7662e-06 -3.78138e-06)
(-2.13821e-06 -6.05242e-06 -2.5616e-06)
(-1.05347e-05 -1.17159e-07 1.08129e-06)
(-1.08685e-05 -2.21018e-07 -1.63049e-07)
(-9.87546e-06 2.84434e-07 -9.05917e-07)
(-1.08695e-05 -3.36032e-07 -1.51413e-06)
(-9.66995e-06 1.8082e-07 -2.32377e-06)
(-1.03149e-05 -4.8678e-07 -2.94933e-06)
(-9.31285e-06 4.56345e-08 -3.68249e-06)
(-9.06737e-06 -5.11457e-07 -4.13786e-06)
(-7.78139e-06 -1.59974e-06 -2.00492e-05)
(-7.44741e-06 -1.96352e-06 -2.0965e-05)
(-7.42733e-06 -2.24136e-06 -1.93942e-05)
(-0.000240713 -6.06686e-05 0.000470304)
(-0.000240651 -5.8508e-05 0.000426403)
(-1.14691e-05 -2.62762e-06 1.49588e-05)
(-2.14363e-05 -3.29232e-06 2.10498e-05)
(-4.06666e-06 -2.02064e-06 1.74743e-05)
(1.20587e-06 -1.75202e-06 1.25465e-05)
(-2.69761e-06 -1.96136e-05 -3.73035e-06)
(-5.20054e-07 -1.5494e-05 -1.38438e-06)
(-0.000128067 3.30912e-05 0.000184845)
(-0.000110641 4.30522e-05 0.000156477)
(-0.000160698 -1.13484e-05 0.000275205)
(-0.000140596 -1.72393e-05 0.000237237)
(-0.000105815 -1.59172e-06 0.000177684)
(-9.25462e-05 -4.69806e-06 0.000152908)
(-0.000163994 8.2976e-05 0.000491649)
(-0.000229109 0.00014645 0.000693201)
(1.85283e-05 -1.57087e-05 0.000188754)
(1.14002e-05 -9.13278e-06 0.000158533)
(-9.70854e-05 2.59956e-05 0.00019368)
(-5.10939e-05 1.19769e-08 0.000168781)
(-0.000191918 -3.81254e-05 0.000512719)
(-0.000193783 -1.97343e-05 0.000510365)
(-0.000192067 -3.23803e-05 0.000538861)
(-0.00021096 -8.29953e-06 0.000542422)
(-0.000559347 6.76756e-06 -0.000150965)
(-0.000640864 6.83427e-06 -0.000182996)
(-2.27671e-05 -7.96741e-05 9.96248e-06)
(-2.65613e-05 -7.89377e-05 1.19292e-05)
(-2.16703e-05 -4.3856e-05 6.54524e-05)
(-2.54111e-05 -5.36369e-05 8.17846e-05)
(-2.91769e-05 -5.25309e-05 6.60572e-05)
(-2.33586e-05 -4.04399e-05 5.3723e-05)
(-1.54763e-05 -8.61508e-05 8.4882e-06)
(-1.99034e-05 -9.83587e-05 6.53342e-06)
(-2.35293e-05 -8.34857e-05 8.82126e-06)
(-2.19125e-05 -8.6494e-05 9.21446e-06)
(-2.31365e-05 -0.000128638 -1.56102e-05)
(-1.99751e-05 -0.000111411 -1.41257e-05)
(-7.64616e-06 -5.66219e-05 -3.31677e-06)
(-9.88198e-06 -5.05371e-05 -4.75778e-06)
(-6.08543e-05 -3.07134e-05 9.43589e-05)
(-5.56426e-05 -3.25354e-05 8.9157e-05)
(7.24458e-05 4.94434e-06 -0.000243446)
(7.22235e-05 -3.02808e-06 -0.000229719)
(-0.000136977 -5.74087e-05 -1.24133e-05)
(-0.000136022 -6.41898e-05 -1.45921e-05)
(-0.000323997 -5.06418e-05 0.000126596)
(-0.000346301 -5.53142e-05 0.000115452)
(-0.000287336 -6.94279e-05 -2.56946e-05)
(-0.000280362 -5.7517e-05 -3.46583e-05)
(-0.000160143 0.000186219 0.000217819)
(-0.000153238 0.000232971 0.000200911)
(-0.000243215 -4.49052e-05 1.28714e-05)
(-0.000127927 -4.60112e-05 -1.80427e-05)
(-0.000203716 -7.88451e-05 7.37338e-05)
(-0.000175816 -7.73224e-05 6.24547e-05)
(-0.000222506 -5.25101e-05 5.75383e-05)
(-6.59263e-05 -4.14158e-05 -6.95353e-06)
(-3.91661e-05 -2.09041e-05 6.06001e-05)
(-3.22776e-05 -1.93809e-05 5.59506e-05)
(0.000761324 -0.000341674 0.000479358)
(0.000661871 -0.000281612 0.000376814)
(0.000699883 -0.000439179 0.00022955)
(0.000593688 -0.000297279 0.00024901)
(0.000623555 -0.000372721 0.000215431)
(0.000419178 -0.000373344 0.000174788)
(0.000528786 -0.000412334 0.00021433)
(0.000418609 -0.000351764 0.000170806)
(0.000626965 -0.000339297 0.000402178)
(0.0006796 -0.000415504 0.000397705)
(0.000642334 -0.000383226 0.000316206)
(0.000555978 -0.000443213 0.00017719)
(0.000649803 -0.00045976 0.000168811)
(0.000540594 -0.000384148 0.000206368)
(0.000282315 -0.00026975 0.000156509)
(0.000405101 -0.000376997 0.000177677)
(0.000324904 -0.000293092 0.000173822)
(0.000271791 -0.000270621 0.000170013)
(0.00012636 -0.000119058 0.000149537)
(6.87249e-05 2.49528e-05 0.000218042)
(9.11076e-05 3.41135e-05 0.000214598)
(0.000100046 3.94905e-05 0.000199939)
(9.94017e-05 3.6876e-05 0.000170766)
(0.000141804 4.38143e-05 0.000179538)
(8.42399e-05 3.45424e-05 0.000199854)
(8.62791e-05 3.74826e-05 0.000192505)
(0.000135755 1.02607e-06 0.000259122)
(0.000143933 9.87247e-06 0.000279862)
(0.000100349 -1.28813e-05 0.000175526)
(0.000117282 -2.51026e-05 0.000212692)
(0.000100229 -3.5402e-05 0.000178413)
(8.63765e-05 -2.56989e-05 0.000159265)
(0.000115127 -2.09821e-05 0.000221267)
(0.000112344 -5.77772e-06 0.000232906)
(9.12294e-05 -1.81651e-05 0.000205826)
(8.36385e-05 -2.93809e-05 0.00018279)
(7.77866e-05 -1.65713e-05 0.000153143)
(7.29906e-05 -1.39247e-05 0.000139374)
(6.45104e-05 -2.85079e-05 0.000126629)
(9.24256e-05 -1.18509e-05 0.000178758)
(5.8328e-05 -1.87346e-05 0.000131069)
(4.50424e-05 -2.85385e-05 0.000114924)
(0.000102572 -1.26176e-05 0.000320875)
(8.57678e-05 -1.31657e-05 0.000301657)
(6.41376e-05 -1.24394e-05 0.000284899)
(3.41066e-05 -9.58772e-06 0.000260738)
(0.00011539 -1.55111e-05 0.000302447)
(6.74373e-05 -3.46067e-05 0.000264456)
(3.78245e-05 -2.71471e-05 0.000220897)
(1.08233e-05 -2.59847e-05 0.00018637)
(1.53024e-05 -4.10093e-05 0.000186316)
(2.93009e-05 -3.72884e-07 0.000191175)
(-8.19343e-06 -2.32017e-05 0.00016574)
(4.51109e-05 1.54232e-05 0.000166299)
(5.1878e-05 2.14857e-05 0.000155044)
(8.56169e-06 -4.24625e-06 0.000129144)
(2.16633e-05 8.03024e-06 0.00013032)
(8.1709e-05 -2.19211e-05 0.000202604)
(7.13776e-05 -1.80679e-05 0.000190688)
(5.29867e-05 -3.6064e-05 0.000177238)
(4.8219e-06 -5.56748e-05 0.000179534)
(4.25768e-05 -3.01169e-05 0.000134504)
(-2.1825e-06 -4.47998e-05 0.000104233)
(-8.5735e-06 -3.9601e-05 0.000129615)
(-2.03455e-05 -3.20771e-05 0.000115319)
(-3.22568e-05 -4.96291e-05 7.81762e-05)
(-4.0638e-05 -3.7756e-05 4.84525e-05)
(-4.12661e-05 -4.24481e-05 3.26842e-05)
(-5.80528e-05 -4.18889e-05 3.5957e-05)
(-2.55746e-05 -2.12486e-05 7.26317e-05)
(-6.10442e-06 -5.40661e-06 7.71167e-05)
(-9.06457e-06 -1.34087e-05 5.87387e-05)
(0.000296651 1.62452e-05 0.000517098)
(0.000337612 4.4403e-05 0.000612313)
(0.000296232 -1.04048e-05 0.000525638)
(0.000298723 2.01596e-05 0.000525131)
(0.000462839 0.000131672 0.000498292)
(0.000513469 0.000142334 0.000609996)
(0.00037076 0.000130166 0.000509659)
(0.000411581 0.000124305 0.000592891)
(0.000341519 0.000118694 0.000531149)
(0.000331565 0.000102881 0.000559342)
(0.000471629 0.000186056 0.00062877)
(0.000395955 0.000159923 0.000467347)
(0.000464922 0.000172859 0.000597152)
(0.000295547 0.000112226 0.0004905)
(0.000400369 0.000145806 0.000616738)
(0.000519906 0.00016883 0.000480586)
(0.000431426 0.000161486 0.000535448)
(0.000437397 0.00016356 0.00054923)
(0.000466259 0.000149954 0.0006566)
(0.000500021 0.000197402 0.000597783)
(0.000543321 0.000214042 0.000575656)
(0.000501449 0.000204403 0.00052494)
(0.000496334 0.000171995 0.000636763)
(0.000485439 0.000174628 0.000650553)
(0.000535583 9.73894e-05 0.000599367)
(0.000673836 0.000102317 0.000634697)
(0.000520816 0.000123064 0.000608308)
(0.000387579 0.000120768 0.000450372)
(0.000490597 0.000116862 0.00056716)
(0.000520152 8.8299e-05 0.000494318)
(0.00038343 6.68221e-05 0.000355181)
(0.000407691 0.000121711 0.000417111)
(0.000460983 0.000104181 0.000416747)
(0.000440326 0.000110209 0.000389167)
(0.000634765 -4.88388e-05 0.000554996)
(0.000657617 -7.56644e-05 0.000543455)
(0.000692752 -0.000207591 0.000489534)
(0.000511832 -8.78061e-05 0.000426887)
(0.000613076 -0.000173341 0.000347733)
(0.000476049 -2.09446e-05 0.000381776)
(0.000657479 -0.000191597 0.000353678)
(0.000413319 -4.2738e-05 0.00028886)
(0.000549475 -0.000145315 0.000248358)
(0.000703146 -0.000314761 0.000238387)
(0.000399579 6.12535e-05 0.000378392)
(0.000403305 9.32041e-05 0.000378896)
(0.000431276 1.18941e-05 0.00028474)
(0.000421521 5.9782e-05 0.000291578)
(0.000497597 0.000180527 0.000444466)
(0.000496824 0.000174834 0.000573005)
(0.000513961 0.000178919 0.000525606)
(0.000533859 0.000154518 0.000416086)
(0.000595839 0.00019762 0.000451684)
(0.000569572 0.000222536 0.000578404)
(0.000482806 0.000171004 0.000570346)
(0.00052446 0.000175542 0.000608817)
(0.000539703 0.000204122 0.000406349)
(0.000515314 0.000185482 0.000565654)
(0.00051784 0.000190567 0.000578695)
(0.000611986 0.000226792 0.000687235)
(0.000607023 0.000224504 0.000538608)
(0.000464496 0.000131135 0.000370101)
(0.000655772 0.000205293 0.000410894)
(0.000508433 0.000108636 0.000350918)
(0.000661994 0.000163359 0.000348714)
(0.000582309 0.000208617 0.000418003)
(0.000587973 0.000188998 0.000495768)
(0.000784292 0.000305958 0.000514608)
(0.000619639 0.000213642 0.00037745)
(0.000592658 0.000179871 0.000400546)
(0.00083449 0.000304045 0.000428777)
(0.000613662 0.000276528 0.000474081)
(0.000653811 0.000234227 0.000605744)
(0.00060601 0.000204581 0.000646893)
(0.000718503 0.000261253 0.000584769)
(0.000730937 0.000270496 0.000556839)
(0.000376656 0.000138176 0.000522923)
(0.000380034 0.000137478 0.000531775)
(0.00025802 6.64299e-05 0.000496492)
(0.000383579 0.00013639 0.000580471)
(0.000459234 0.000119804 0.000710972)
(0.000426958 0.000113209 0.00066581)
(0.000390607 0.000131136 0.000537189)
(0.00041703 0.000144382 0.000570592)
(0.000404733 0.000140195 0.000623115)
(0.000372826 4.62478e-05 0.000684324)
(0.000322196 2.13182e-05 0.000624079)
(0.000384875 9.19707e-05 0.000668935)
(0.000352767 7.87144e-05 0.000619069)
(0.000315268 1.69867e-05 0.000535426)
(0.000433435 0.000151105 0.000578802)
(0.000462766 0.00012039 0.000668954)
(0.000403347 9.95748e-05 0.000629967)
(0.000391113 -3.22947e-05 0.000663046)
(0.000494423 0.000130676 0.000773093)
(0.000372056 4.14796e-05 0.000673561)
(0.000480902 0.000181504 0.000575053)
(0.000534359 0.000198288 0.000630636)
(0.000479805 0.000137671 0.000704396)
(0.000441625 0.000156036 0.000599102)
(0.000517787 0.000191474 0.000616361)
(0.000524553 0.000110381 0.000760004)
(0.000523508 0.000122699 0.000824401)
(0.000414862 1.65494e-05 0.000729098)
(0.000375682 1.66754e-05 0.000634018)
(0.00040766 4.28416e-05 0.000682312)
(0.000469303 0.000104319 0.000716794)
(0.000394613 4.45102e-05 0.000636602)
(0.000518101 0.0001955 0.000643939)
(0.0005273 8.18642e-05 0.00079898)
(0.000600934 0.000166615 0.000884069)
(0.000276322 -6.59681e-06 0.000488148)
(0.000291579 3.31947e-05 0.000512224)
(0.000349407 0.000116447 0.000551105)
(0.000367044 6.84675e-05 0.000622019)
(0.000338791 8.53984e-06 0.000563894)
(0.000438256 7.17373e-05 0.000704652)
(0.000328277 -3.23984e-05 0.000555971)
(0.000335094 1.12724e-05 0.000563303)
(0.000422501 0.000122949 0.000666228)
(0.000342079 3.31392e-05 0.000579458)
(0.00029187 2.28044e-05 0.000488312)
(0.000354919 -1.09626e-05 0.00058239)
(0.000301221 2.81755e-05 0.000502258)
(0.000341475 3.15201e-05 0.00056024)
(0.000412625 1.98683e-05 0.000672806)
(0.000317289 7.61027e-05 0.000542695)
(0.000312961 4.10029e-05 0.000520984)
(0.000398964 -7.19629e-05 0.000606737)
(0.000481157 0.000104116 0.000766763)
(0.000412985 -5.11579e-05 0.000707776)
(0.000524567 4.34944e-05 0.000860252)
(0.0003997 -1.64085e-05 0.000677339)
(0.00042054 -3.37187e-06 0.000709199)
(0.000536277 0.000136546 0.000787979)
(0.000424691 2.87458e-05 0.000681443)
(0.00048427 7.30904e-06 0.000775819)
(0.000514841 2.55402e-05 0.000841799)
(0.000513489 4.17158e-06 0.000819198)
(0.000415919 1.73249e-05 0.000663593)
(0.000467257 1.97148e-05 0.000741095)
(0.000413425 8.13543e-06 0.000652101)
(0.000468113 3.23321e-05 0.000736967)
(0.000567766 0.000173074 0.000737642)
(0.00057084 0.000203526 0.000666064)
(-2.10883e-05 -4.9272e-05 0.000160901)
(0.000576546 0.000140472 0.000820344)
(0.000503871 0.000128629 0.000713537)
(0.000664125 0.000252227 0.000697121)
(0.00059324 0.000228503 0.00062553)
(0.000639016 0.00022457 0.000714355)
(-2.53636e-05 -4.8935e-05 0.000160353)
(0.000572874 0.000177304 0.000764056)
(0.000568828 0.000199547 0.000683671)
(0.000623804 0.000225069 0.000725601)
(0.000574287 0.000160988 0.000814469)
(0.000633377 0.000158718 0.000950261)
(-2.29869e-05 -4.87045e-05 0.000157551)
(0.000470601 4.59314e-05 0.000771502)
(0.000435231 3.5957e-05 0.000732073)
(0.000465419 6.05472e-05 0.000740144)
(0.00053785 3.6129e-05 0.000829194)
(0.00046397 8.50149e-05 0.000727352)
(-2.54671e-05 -3.81736e-05 0.000160579)
(0.000582106 0.000221238 0.000698829)
(0.000610807 0.000106877 0.000880214)
(0.00069357 0.000202535 0.000960063)
(0.000675643 0.000228972 0.000790379)
(0.00076742 0.000282035 0.000662263)
(0.000845106 0.000332326 0.000634294)
(0.000656064 0.00019018 0.000854796)
(0.000623104 0.000184084 0.000765611)
(0.000662474 0.000283162 0.000616585)
(0.000699638 0.000260859 0.000676164)
(0.000678752 0.00022628 0.000773434)
(0.000721795 0.000250921 0.000818414)
(0.000774585 0.000305563 0.00080018)
(0.000684096 0.000217894 0.000861684)
(0.000693464 0.000163252 0.000965434)
(0.000567966 0.000130493 0.000808503)
(0.000637297 0.000128763 0.000999656)
(0.000512616 8.13567e-05 0.000782824)
(0.000602662 7.41837e-05 0.000918877)
(0.000746517 0.000248697 0.000944127)
(0.000622237 0.000196404 0.000796287)
(0.000671599 0.000179011 0.000953842)
(0.000553005 8.88178e-05 0.000893746)
(0.000567342 0.000139059 0.000819994)
(0.000756053 0.000131187 0.00106398)
(0.000652704 0.000124448 0.00102282)
(0.0006001 4.3068e-05 0.000966991)
(0.000588428 1.39224e-05 0.000933724)
(0.00048076 7.61037e-06 0.000805384)
(0.000468187 3.2447e-05 0.000757635)
(0.000615048 0.000103109 0.000897267)
(0.000630844 0.00011567 0.000986251)
(0.000587069 9.26e-06 0.000923085)
(0.000605135 3.20772e-05 0.000950182)
(0.000606267 -3.57641e-05 0.000940209)
(0.000579975 4.15313e-05 0.000887174)
(0.000685856 0.000125769 0.00100031)
(-3.14653e-05 -4.32909e-05 0.000169012)
(0.000512897 -1.09068e-05 0.00083848)
(0.000464494 3.48733e-05 0.000740544)
(0.000673148 0.000155412 0.000991376)
(0.000707719 0.000201157 0.00105714)
(0.000584434 -1.02572e-07 0.000975342)
(0.000740076 7.30583e-05 0.0011657)
(0.000541376 4.51797e-05 0.000847947)
(0.000664809 3.22937e-05 0.00102027)
(0.000532321 7.92213e-05 0.000842527)
(0.000510299 3.96302e-06 0.000780469)
(0.000644325 -7.75929e-05 0.000956698)
(0.000723486 4.8665e-05 0.00114361)
(0.000719361 3.31429e-05 0.00112991)
(0.00029859 -4.39837e-05 0.00042868)
(0.000223377 1.76994e-05 0.000345069)
(0.000236373 1.61483e-05 0.00034562)
(0.000222416 8.18396e-06 0.000339675)
(0.000165207 3.03714e-05 0.000293858)
(0.00020051 3.37822e-05 0.000328052)
(0.000247107 1.66346e-05 0.000340303)
(0.000193244 4.5667e-05 0.000324476)
(0.000303842 3.3759e-05 0.000535656)
(0.000295111 4.6714e-05 0.000494616)
(-2.31936e-05 -4.19133e-05 0.000154069)
(-2.68762e-05 -4.39482e-05 0.000160997)
(-2.48617e-05 -4.05955e-05 0.000149088)
(-2.635e-05 -3.68993e-05 0.000149958)
(0.000310568 3.88629e-05 0.000497619)
(0.000273256 7.06084e-05 0.000447606)
(0.000307965 2.72777e-05 0.000433197)
(0.000259892 4.63053e-05 0.000383347)
(0.000305703 1.73627e-05 0.000425101)
(0.000285894 4.1357e-05 0.000404332)
(-2.98112e-05 -3.6297e-05 0.000155398)
(0.000301837 1.83724e-05 0.000409757)
(-3.51541e-05 -2.89445e-05 0.000165508)
(-3.02214e-05 -3.46603e-05 0.000156449)
(0.000208003 4.7945e-05 0.00023913)
(0.000184363 4.58062e-05 0.000222355)
(0.00018608 3.67185e-05 0.00022992)
(-3.35723e-05 -3.4498e-05 0.000154469)
(-2.66335e-05 -3.84585e-05 0.000165335)
(-2.60175e-05 -4.19992e-05 0.000161835)
(-3.24426e-05 -3.3837e-05 0.000175765)
(-3.4004e-05 -4.24411e-05 0.000183458)
(-2.98243e-05 -3.037e-05 0.00016735)
(-2.86669e-05 -2.62737e-05 0.000160073)
(-3.4789e-05 -3.45659e-05 0.000159632)
(0.000141465 4.91524e-05 0.000176351)
(0.000184268 5.23552e-05 0.000200204)
(0.000151343 4.30443e-05 0.000174587)
(0.000122528 4.36177e-05 0.000180352)
(0.000157768 4.8665e-05 0.000192124)
(0.000199593 4.2183e-05 0.000205475)
(0.000207277 4.78857e-05 0.000237498)
(0.00024808 3.69511e-05 0.00024796)
(0.000233375 4.33721e-05 0.00022801)
(0.000206146 5.09939e-05 0.000241241)
(0.000197968 5.41286e-05 0.000200782)
(0.000219 4.63307e-05 0.000213168)
(0.00022952 3.24401e-05 0.000279604)
(0.000213094 3.71222e-05 0.000284982)
(0.000259925 2.35923e-05 0.000324037)
(0.000208813 3.37421e-05 0.00029958)
(0.000231113 1.90395e-05 0.000302232)
(0.000195447 3.49783e-05 0.00028895)
(0.000272254 5.39042e-05 0.00034612)
(0.00028183 2.93857e-05 0.000308181)
(0.00025178 3.52787e-05 0.000286953)
(0.000222184 3.46815e-05 0.000274977)
(0.00027419 2.56313e-05 0.000370722)
(0.000266746 2.69165e-05 0.000321476)
(0.000292716 4.48224e-05 0.000393587)
(0.00025565 5.62857e-05 0.000300458)
(0.000296537 2.80048e-05 0.00033689)
(0.000279587 2.44974e-05 0.000283843)
(0.000302184 3.08122e-05 0.000327655)
(0.000286762 4.20613e-05 0.000323656)
(0.000286143 4.60646e-05 0.000378327)
(0.000317452 2.13656e-05 0.000408208)
(0.000326911 4.03235e-06 0.000387499)
(0.000337741 3.78076e-05 0.000441669)
(0.000366374 3.93236e-05 0.000444725)
(0.000356758 9.73332e-06 0.00038197)
(0.000334267 6.91664e-06 0.000307642)
(0.000348069 2.68781e-05 0.00037151)
(0.000280136 3.41225e-05 0.000273298)
(0.000258773 2.77295e-05 0.000228576)
(0.000292845 3.80612e-05 0.000270487)
(9.65881e-05 3.61254e-05 0.000148385)
(0.000129969 4.47056e-05 0.00016292)
(7.59064e-05 2.75571e-05 0.000118146)
(0.000129625 4.28855e-05 0.000134224)
(0.000170494 4.49571e-05 0.000170893)
(0.000225948 4.0518e-05 0.000196747)
(0.00018052 5.20685e-05 0.000169443)
(3.29339e-05 1.25685e-05 6.91613e-05)
(0.000130696 4.22623e-05 8.59866e-05)
(-2.71296e-05 -1.98919e-05 3.04865e-05)
(-2.07933e-06 -1.79371e-06 3.67655e-05)
(8.72234e-05 3.29108e-05 4.07034e-05)
(0.000134033 4.37783e-05 0.000106226)
(0.00013083 2.90095e-05 5.70498e-05)
(0.000181928 4.93102e-05 0.000124823)
(0.000234813 3.92243e-05 9.63383e-05)
(0.000120165 3.90656e-05 4.77956e-05)
(0.000139823 3.82668e-05 6.7303e-05)
(0.000227503 5.09615e-05 8.59659e-05)
(0.000362018 2.94945e-05 0.000351469)
(0.000424484 1.08656e-06 0.000443982)
(0.000376045 1.19659e-05 0.000387827)
(0.000426092 7.44585e-06 0.000431991)
(0.000273636 4.34875e-05 0.000243004)
(0.000343569 1.51623e-05 0.000305668)
(0.000307515 2.83158e-05 0.000264942)
(0.000326252 2.78218e-05 0.000294508)
(0.000276709 4.45303e-05 0.000216405)
(0.000311279 3.77323e-05 0.000280536)
(0.000392274 -5.6958e-06 0.00027968)
(0.000458625 8.15087e-06 0.000372433)
(0.000462606 -1.92692e-05 0.000417843)
(0.000432423 -3.54538e-06 0.000347187)
(0.00038349 2.46099e-05 0.000374313)
(0.000284276 3.66546e-05 0.000130577)
(0.000312568 3.15335e-05 0.000171809)
(0.000366197 8.63774e-06 0.000238599)
(0.000336667 2.49823e-05 0.000169101)
(0.000334972 2.57763e-05 0.000201519)
(0.000267814 4.71439e-05 0.000133921)
(0.00031889 3.10958e-05 0.000167696)
(0.000434888 1.46219e-05 0.000304605)
(0.00045403 -1.43945e-05 0.000329168)
(0.000521798 -3.43662e-05 0.000322571)
(0.000445326 -1.55407e-06 0.000270957)
(0.000412189 8.38197e-06 0.000239595)
(0.00044081 -3.3609e-06 0.000242531)
(0.000274917 4.6934e-05 0.000467542)
(0.000286721 2.45349e-05 0.000470857)
(0.000322347 -2.55813e-05 0.000499177)
(0.000312685 1.17563e-05 0.000488038)
(0.000261906 6.02174e-05 0.000439525)
(0.000292432 3.44384e-06 0.000439372)
(0.000415805 -2.94053e-05 0.000616007)
(0.00028601 2.86141e-05 0.00046871)
(0.000309007 1.10615e-05 0.000473507)
(0.00035069 2.09951e-05 0.000539647)
(0.00033577 5.25943e-06 0.000478848)
(0.000302581 2.06079e-05 0.000437675)
(0.000329721 2.17514e-05 0.000480449)
(0.000435601 -9.24252e-06 0.000621119)
(0.000463734 1.75995e-05 0.000761742)
(0.000342849 4.00243e-05 0.000543951)
(0.000384848 4.23986e-05 0.000620552)
(0.000388653 5.67429e-05 0.000651293)
(0.00040932 1.85482e-06 0.000625036)
(0.000540244 -7.21142e-05 0.000760704)
(0.000489019 -8.68994e-05 0.000662515)
(0.000392593 7.61929e-05 0.000652447)
(0.00040036 9.25947e-06 0.00060758)
(0.000346186 2.82268e-05 0.000510159)
(0.000384961 2.28707e-05 0.000562827)
(0.000367494 8.2724e-06 0.000502082)
(0.000315136 2.74528e-05 0.000438994)
(0.000354327 2.238e-05 0.000489509)
(-3.6333e-05 -3.00117e-05 0.000161489)
(0.000444801 -3.61336e-05 0.000588473)
(0.00039058 1.42388e-05 0.000511642)
(0.000438238 3.00511e-05 0.000588992)
(0.000380154 1.72356e-05 0.000572209)
(0.000428295 -4.48073e-06 0.000584274)
(0.000492729 -1.55698e-05 0.000662279)
(0.000406602 -8.08386e-06 0.000508373)
(0.000371355 3.22184e-06 0.000429193)
(0.000377916 3.63908e-05 0.000508232)
(0.00061915 -3.41537e-05 0.000944878)
(0.000416832 3.49906e-05 0.000652173)
(-3.64729e-05 -2.58241e-05 0.000149215)
(0.000439324 1.35092e-05 0.000649532)
(0.000500879 1.84245e-05 0.000749847)
(0.000594287 -3.45463e-05 0.000861089)
(0.000571191 -6.10935e-05 0.000769104)
(0.000396974 1.80445e-05 0.000565772)
(-4.16074e-05 -2.12572e-05 0.000161011)
(0.000469173 -8.08546e-05 0.000531922)
(0.000502958 3.84612e-06 0.00067639)
(0.000568671 -1.79165e-05 0.000830573)
(0.000477694 4.52796e-06 0.0006893)
(0.000537915 2.0689e-05 0.000773016)
(0.000585615 -1.58637e-05 0.00079219)
(0.000490881 4.67425e-05 0.000689431)
(0.000652906 -7.19646e-05 0.000840985)
(0.000537547 -2.71753e-05 0.000693759)
(0.000586705 -2.04594e-06 0.000800642)
(0.000471211 4.02255e-05 0.000742757)
(0.000473523 -1.15858e-05 0.000701719)
(0.000577514 -4.06234e-05 0.000837861)
(0.000642916 -1.76892e-05 0.000972258)
(0.000612566 -8.62485e-05 0.000883914)
(0.000547718 9.74147e-05 0.000867015)
(0.000670193 -6.12428e-05 0.00101591)
(0.000618452 0.000123839 0.000989567)
(0.000575658 4.27844e-05 0.000901368)
(0.000557663 2.05099e-05 0.000842676)
(0.000663568 -4.48348e-05 0.000960304)
(0.000524671 7.43038e-08 0.000796754)
(0.000556131 -1.62319e-05 0.000786922)
(0.000645028 -4.87101e-05 0.000886465)
(0.000760848 -7.28906e-05 0.00101544)
(0.000555066 -2.0223e-05 0.000796224)
(0.00061078 -4.98816e-05 0.000776283)
(0.000671775 2.25225e-05 0.000930424)
(0.000423316 1.36612e-05 0.000499937)
(0.000396097 -3.00196e-05 0.000471476)
(0.000455604 -3.90134e-05 0.000490675)
(0.000461024 2.31843e-05 0.000592943)
(0.000540556 -7.26271e-06 0.000676337)
(0.000481438 2.71067e-05 0.000582892)
(0.000474937 -2.55755e-05 0.000507423)
(0.00046545 -1.19442e-05 0.000437072)
(0.000476249 3.47948e-06 0.000488526)
(0.000565742 -3.13948e-05 0.000606516)
(0.000525652 -3.94995e-05 0.000514036)
(0.000562082 -2.62332e-05 0.000585129)
(0.000603946 -5.28097e-05 0.00070675)
(-4.43321e-05 -1.70653e-05 0.000159239)
(0.000517779 -1.93339e-05 0.000616836)
(0.000565521 -1.83305e-05 0.000687925)
(0.000706557 -0.000104405 0.00085265)
(0.000606342 -4.34161e-05 0.000704506)
(0.000643699 -1.24662e-05 0.000813206)
(-4.76307e-05 -1.23638e-05 0.000160548)
(0.000651519 -8.06301e-05 0.000703281)
(0.000623045 -0.000108393 0.000540354)
(-3.61376e-05 -3.44321e-05 0.000183957)
(0.000620567 -1.44434e-05 0.000716516)
(0.000518093 -2.27979e-05 0.000483388)
(-4.02067e-05 -2.71136e-05 0.000187222)
(0.000513283 -3.50674e-05 0.000417449)
(0.000522412 -7.38578e-06 0.000478871)
(-3.44087e-05 -3.42396e-05 0.000169141)
(0.000605944 -2.31692e-05 0.000449201)
(-3.7555e-05 -1.66939e-05 0.000170437)
(-4.08709e-05 -2.86796e-05 0.000183984)
(0.000575221 -7.65476e-05 0.000488596)
(0.000598554 -8.77651e-05 0.000431937)
(-4.2049e-05 -2.72697e-05 0.000183723)
(0.000596583 -9.48097e-06 0.00060388)
(0.000606522 -0.000439078 0.000197406)
(-4.55959e-05 -1.98095e-05 0.000178983)
(0.000643787 -0.000469498 0.000111967)
(0.000524708 -0.00040583 0.000110415)
(-4.46e-05 -2.04542e-05 0.000183064)
(0.000463993 -0.00039236 0.000168556)
(0.000518343 -0.000431603 0.000136098)
(-4.85061e-05 -1.30443e-05 0.000191798)
(0.000395328 -0.000358782 0.000104552)
(0.00048005 -0.000371214 0.000221011)
(-3.72936e-05 -1.96305e-05 0.000164979)
(-3.37767e-05 -1.73884e-05 0.000152121)
(0.000512451 -0.000409407 0.000103439)
(-3.94222e-05 -2.38086e-05 0.000154576)
(-4.12994e-05 -1.82116e-05 0.000168968)
(0.000339765 -0.000319929 0.000153959)
(-3.97319e-05 -1.58241e-05 0.000153437)
(-4.36803e-05 -1.3203e-05 0.000167339)
(0.000400093 -0.000375333 0.00013929)
(-4.22565e-05 -1.25874e-05 0.000151593)
(0.000300528 -0.000292989 0.000120361)
(0.000205718 -0.000226937 0.000103622)
(0.000302382 -0.000302887 0.000150969)
(0.000227143 -0.000222502 0.000138725)
(0.000191673 -0.000204209 0.000110114)
(0.000260204 -0.000240405 0.000136663)
(0.000196654 -0.000205117 0.000111034)
(0.000338595 -0.000279706 0.000205261)
(0.000370723 -0.000318996 0.000137178)
(0.000407746 -0.000406677 6.05995e-05)
(0.000552716 -0.000467312 7.8538e-05)
(0.000396495 -0.000339156 0.000116157)
(0.000238457 -0.000252284 7.26788e-05)
(0.000391371 -0.000370409 0.000107011)
(0.000286554 -0.000256418 0.000138855)
(0.000265383 -0.000267749 0.000147617)
(0.000291761 -0.000245104 0.000174952)
(0.000343718 -0.000293251 0.000116025)