# Region type : patch RMPA
# Faces  :    672
# Area   :    7.397744e-05
# Time        	sum(phi)
0.6           	4.402864e-05
