/*--------------------------------*- C++ -*----------------------------------*\
  =========                 |
  \\      /  F ield         | OpenFOAM: The Open Source CFD Toolbox
   \\    /   O peration     | Website:  https://openfoam.org
    \\  /    A nd           | Version:  7
     \\/     M anipulation  |
\*---------------------------------------------------------------------------*/
FoamFile
{
    version     2.0;
    format      ascii;
    class       volScalarField;
    location    "2";
    object      p;
}
// * * * * * * * * * * * * * * * * * * * * * * * * * * * * * * * * * * * * * //

dimensions      [0 2 -2 0 0 0 0];

internalField   nonuniform List<scalar> 
382612
(
0.00229207
0.00222753
0.002167
0.00217807
0.00208219
0.00253624
0.0022903
0.00206378
0.00196011
0.00183687
0.00192145
0.00191924
0.00188319
0.00212704
0.00207108
0.00230815
0.00224165
0.00236287
0.0022123
0.00226875
0.00231431
0.00237296
0.00243229
0.00256457
0.00252904
0.00248726
0.00245221
0.003167
0.00323969
0.00329886
0.00334774
0.00313341
0.00311484
0.00309342
0.00306356
0.00292379
0.00238875
0.00233207
0.00245875
0.00252566
0.00258868
0.00264729
0.00264285
0.00261107
0.00257162
0.00252778
0.00244335
0.00246579
0.00250105
0.0025315
0.00264487
0.00259517
0.00254241
0.00248876
0.00238169
0.00237644
0.00233186
0.00225485
0.00238507
0.0023845
0.00247062
0.00255953
0.00259313
0.00288627
0.00246393
0.00229266
0.00278606
0.00295021
0.00305166
0.00329182
0.00332793
0.0033384
0.00334549
0.00371465
0.00369898
0.00367759
0.00363847
0.00347515
0.00310395
0.00328442
0.00335458
0.00339945
0.00343071
0.00384702
0.00385077
0.00385026
0.0037996
0.00348962
0.00263474
0.00288613
0.00295023
0.00298176
0.00300263
0.00318261
0.00319423
0.00320584
0.00317364
0.00294382
0.00241046
0.00232453
0.00242651
0.0024717
0.00252061
0.00257586
0.00247333
0.00245349
0.00243233
0.00242437
0.00227228
0.00231255
0.00235224
0.00238416
0.00261949
0.00256083
0.00250207
0.00244716
0.00232684
0.00213825
0.00209946
0.00214691
0.00218468
0.00221282
0.00237346
0.00231005
0.00224956
0.00219185
0.00205849
0.00190359
0.00204787
0.00232234
0.00237546
0.00240126
0.00241526
0.0026271
0.00263024
0.00263331
0.00262261
0.00266186
0.00262539
0.00258756
0.00257468
0.00255906
0.00254632
0.00206341
0.00204388
0.00202
0.00199077
0.00216672
0.00221471
0.00225218
0.0022836
0.00230834
0.00227223
0.00223771
0.00221045
0.00222882
0.00218568
0.00212
0.00212143
0.00213904
0.00215647
0.00204024
0.00212653
0.00217301
0.00196055
0.00196699
0.00198108
0.0023331
0.00251635
0.00177565
0.0018826
0.00221033
0.00192297
0.00198787
0.00199481
0.00199863
0.00200858
0.0020205
0.00202615
0.00268539
0.00269902
0.00271908
0.00272673
0.00262005
0.0018909
0.0019068
0.00191334
0.00192432
0.00193403
0.00249336
0.00251527
0.00254746
0.00257205
0.00253465
0.00215898
0.00230736
0.00236672
0.00237736
0.00238041
0.00238576
0.0020975
0.00209752
0.00210061
0.00211344
0.00158131
0.00159699
0.00161507
0.00162457
0.00216271
0.00214844
0.00213075
0.00211517
0.00213131
0.00157564
0.00153653
0.00207982
0.001974
0.00155169
0.00181507
0.00204299
0.0017671
0.00201578
0.00196311
0.00177803
0.00149038
0.00182309
0.00186756
0.00161858
0.00151084
0.00180564
0.0018518
0.00165347
0.00193467
0.00197897
0.00185918
0.00173484
0.0019463
0.00194539
0.00201623
0.00210071
0.00224569
0.00213622
0.00226626
0.00240244
0.00219158
0.00206155
0.00214177
0.00216632
0.00220041
0.00223845
0.00256734
0.00255321
0.00252984
0.00247117
0.00289759
0.00288336
0.00286841
0.00285238
0.00351977
0.00350247
0.00348372
0.00343807
0.00322111
0.0029367
0.00283946
0.00291023
0.00294692
0.00296273
0.00297757
0.00254623
0.0025427
0.00252807
0.00250295
0.00251857
0.00314338
0.00313802
0.00316044
0.00318073
0.00319578
0.00313933
0.00311962
0.00308965
0.00306442
0.00306962
0.0034609
0.00345604
0.00346143
0.00347952
0.00349473
0.00376962
0.00376686
0.00376127
0.00374044
0.00362063
0.00350564
0.00368822
0.00373733
0.00376143
0.003776
0.00434105
0.0043433
0.00434472
0.00430135
0.00398735
0.00306334
0.00316161
0.00319058
0.00322057
0.00324628
0.00322318
0.00320833
0.00318754
0.00314283
0.00293417
0.0025931
0.00274438
0.00280138
0.0028414
0.00286842
0.00333214
0.00335008
0.00337514
0.00336569
0.00314933
0.00201932
0.00210126
0.00212642
0.00215878
0.00218783
0.00258749
0.00267151
0.00269841
0.00271648
0.00272897
0.00236732
0.00234002
0.00230441
0.002271
0.00217544
0.00283037
0.00295322
0.00294828
0.00291704
0.00289204
0.00193606
0.00191745
0.00189293
0.00187284
0.00182487
0.00257712
0.00258502
0.00255626
0.00252107
0.00249642
0.00177916
0.0017758
0.00177144
0.00178031
0.00184239
0.00181319
0.00179678
0.00180302
0.00181993
0.00183386
0.00227249
0.00229644
0.00232937
0.00236502
0.00241924
0.00182741
0.0017339
0.00172407
0.00173139
0.00173676
0.00227634
0.00229242
0.00231522
0.00233431
0.00231465
0.00203539
0.00212296
0.00215144
0.00216074
0.00216328
0.00216611
0.00198565
0.0019834
0.00198201
0.00198984
0.0017016
0.00170471
0.00171276
0.00171714
0.00204501
0.0020403
0.00203359
0.00202604
0.00202166
0.00171126
0.00193993
0.00190105
0.00189865
0.00190388
0.00190647
0.00180148
0.00189086
0.00214157
0.00209484
0.00207308
0.00205876
0.00204843
0.00192614
0.00192752
0.0019282
0.00192704
0.00208541
0.00208519
0.0020832
0.00208289
0.00208603
0.00208534
0.00208534
0.00208372
0.00194853
0.00195319
0.00195799
0.00195943
0.00211945
0.00212821
0.00213759
0.00214547
0.00217633
0.00196254
0.00208018
0.00208922
0.00201364
0.00169583
0.0019095
0.00194559
0.00173182
0.00171332
0.00196279
0.00194641
0.00160196
0.00215446
0.00217724
0.00208202
0.00199895
0.00191725
0.00207586
0.00172737
0.00172423
0.00183305
0.0020165
0.00216043
0.00209523
0.00207945
0.0020752
0.0020737
0.00200665
0.00200245
0.00199562
0.00199507
0.00203389
0.0023207
0.00230342
0.0022872
0.00228036
0.00227986
0.00226342
0.0022667
0.0022742
0.00229159
0.00234471
0.00214558
0.00211181
0.00211042
0.00210996
0.00210756
0.00210673
0.0021186
0.00211427
0.00210944
0.00211065
0.00189145
0.0018965
0.00190093
0.00190238
0.00200983
0.0020106
0.00201145
0.00201229
0.00202311
0.00188045
0.00205596
0.00203404
0.00203189
0.00202939
0.00202572
0.00199074
0.00204945
0.00205791
0.00202281
0.00202407
0.00203023
0.00203361
0.0021949
0.00219308
0.00218945
0.00218823
0.00221382
0.00234174
0.00234489
0.00233721
0.00233183
0.00232976
0.00222331
0.00222291
0.00222371
0.0022338
0.00228397
0.00228119
0.00225437
0.0022486
0.00224422
0.00224089
0.00207958
0.00207608
0.00207173
0.00207169
0.00210373
0.00209988
0.00209419
0.00209049
0.00208777
0.00209111
0.00209522
0.00209821
0.00208759
0.00208689
0.00208904
0.00208964
0.00226348
0.00225683
0.00224728
0.00224043
0.00226547
0.0021155
0.00210695
0.0021289
0.00217439
0.00196661
0.00202431
0.00206881
0.00199265
0.00177705
0.00196234
0.00199472
0.00179086
0.00224967
0.00217998
0.00213008
0.00217393
0.00208741
0.00210468
0.00214023
0.00214498
0.00225618
0.00219001
0.00217853
0.00213698
0.00213221
0.00213642
0.00213984
0.00226707
0.00226377
0.00225857
0.00225418
0.00226362
0.00235189
0.00234857
0.00234546
0.00234406
0.0023433
0.00228174
0.00228274
0.00228308
0.00228401
0.00230439
0.00237723
0.002366
0.00236509
0.0023641
0.00236325
0.00235771
0.00234997
0.00233926
0.00232877
0.00233452
0.00220878
0.0021809
0.00217575
0.00217166
0.00216709
0.00229452
0.00228621
0.0022757
0.00226485
0.00227105
0.00216659
0.00210943
0.00211017
0.00211563
0.00211699
0.00211707
0.00212443
0.00212017
0.00211499
0.00211891
0.00215691
0.0021586
0.00216226
0.00216543
0.00211621
0.00211559
0.00211492
0.0021124
0.00210968
0.00217028
0.00217947
0.00213032
0.00215761
0.00219164
0.00200799
0.00205581
0.00214036
0.00212923
0.00217523
0.00212227
0.00202659
0.00199288
0.00181634
0.0019172
0.00205807
0.00212535
0.00205993
0.00204536
0.00204312
0.00203014
0.00217013
0.00224545
0.00229305
0.00225245
0.00218529
0.00218152
0.0021854
0.00218891
0.00219113
0.00232792
0.00233002
0.00233452
0.00234261
0.00235043
0.00241046
0.00240911
0.00240463
0.00240184
0.00240037
0.00231801
0.00231351
0.00230716
0.00230231
0.00231816
0.00240831
0.00242289
0.00242718
0.00242787
0.00242785
0.00249269
0.00249226
0.00249269
0.00249173
0.00247427
0.00238392
0.00237381
0.00237859
0.00238622
0.00239152
0.00248673
0.00248662
0.00248561
0.00247993
0.00246283
0.00239632
0.00240401
0.00240941
0.00241325
0.00241552
0.00224914
0.00224571
0.0022406
0.00223264
0.00221513
0.00214401
0.00212032
0.0021341
0.00213939
0.00213928
0.00213734
0.00215741
0.00215395
0.00214921
0.00214526
0.00220205
0.00220597
0.00221275
0.00222116
0.00215856
0.00215469
0.0021479
0.00213638
0.00211382
0.00218826
0.00229549
0.00232021
0.00232952
0.00233842
0.00234598
0.00236312
0.00235424
0.00234616
0.00233951
0.00231539
0.00218621
0.0021286
0.00215311
0.00216138
0.00216823
0.00217651
0.00223929
0.00222566
0.0022105
0.00220098
0.00220295
0.00221964
0.00223272
0.00224172
0.00221114
0.00219766
0.00218374
0.00216355
0.00209803
0.00216581
0.00230529
0.00218582
0.0020569
0.002063
0.00239119
0.00223943
0.00208268
0.00211742
0.00225181
0.00215358
0.00207212
0.00206771
0.00203421
0.00202875
0.00211569
0.00222787
0.00219318
0.0021162
0.00200464
0.00201243
0.00176761
0.00189084
0.00184413
0.00168951
0.00151815
0.0017684
0.00180033
0.00157625
0.00166933
0.00185117
0.00189054
0.00172866
0.00177556
0.00193652
0.00191761
0.00171645
0.00189759
0.00196971
0.00210915
0.00213913
0.0022631
0.00219535
0.00217712
0.00217142
0.00216921
0.00217421
0.00217724
0.00218456
0.00219992
0.00221603
0.00228657
0.00227614
0.00226472
0.00225819
0.00225473
0.0021184
0.00211768
0.00211604
0.00211315
0.00211283
0.00217516
0.002147
0.00213524
0.00213048
0.00212865
0.00220484
0.00220614
0.00220898
0.00221526
0.0022268
0.00228114
0.00227396
0.00227192
0.00227294
0.00227359
0.00227914
0.00227677
0.0022714
0.00226446
0.00226359
0.00233932
0.00235169
0.00236291
0.00236905
0.00237229
0.0024703
0.00246944
0.00246885
0.00246787
0.00245885
0.00248938
0.00250035
0.00250335
0.00250465
0.00250519
0.00258251
0.00258013
0.00257631
0.00256947
0.0025517
0.00258774
0.00261835
0.00262905
0.00263334
0.00263542
0.00247564
0.0024679
0.00245742
0.00244943
0.00244818
0.00247126
0.00250487
0.00251717
0.0025215
0.00252326
0.00242106
0.00242067
0.00241767
0.0024098
0.0023851
0.00251352
0.00257068
0.00258683
0.00258767
0.0025849
0.0022728
0.00225976
0.00224488
0.00223396
0.00223715
0.00226298
0.00228182
0.00229874
0.00229531
0.00227756
0.00225871
0.0022362
0.00217782
0.0022741
0.00230319
0.00231534
0.00233107
0.00234476
0.00247614
0.00247325
0.00246638
0.00245497
0.00242548
0.00246882
0.00255505
0.00257671
0.00258856
0.0025995
0.00237643
0.00235537
0.0023329
0.00231791
0.00222025
0.00224329
0.00226711
0.00229135
0.00231026
0.00228431
0.00225652
0.0022223
0.00227978
0.00230437
0.00232668
0.00234534
0.00266489
0.00266455
0.00266057
0.00263642
0.00254179
0.00221705
0.00213941
0.00222421
0.0023224
0.00245621
0.00227553
0.00215487
0.00228207
0.00218912
0.00215662
0.00213527
0.00215981
0.00221444
0.00210931
0.002254
0.00252566
0.0023194
0.00213568
0.00213859
0.00220979
0.00190209
0.00192737
0.00188982
0.00181347
0.00153787
0.00177457
0.00178619
0.00161863
0.00172967
0.00188307
0.00195835
0.00186099
0.0019633
0.00209783
0.00207329
0.00210625
0.00212133
0.00211665
0.00207299
0.0019943
0.0018759
0.00170786
0.00161604
0.00163938
0.00165151
0.00165579
0.00165659
0.00193802
0.00193598
0.00193656
0.00194621
0.00195902
0.00196133
0.00197008
0.0019826
0.00199041
0.00199455
0.00217995
0.00217811
0.0021772
0.00217865
0.00217076
0.00219798
0.00225116
0.0022548
0.00225199
0.00225048
0.00218495
0.00218228
0.00217668
0.00216532
0.00212803
0.00232526
0.00233957
0.00234119
0.00234298
0.00234495
0.00245113
0.00245175
0.00245326
0.0024507
0.00240918
0.00234291
0.00237762
0.00239015
0.00239728
0.00240078
0.00250369
0.00249991
0.00249524
0.00249076
0.00247798
0.00247168
0.0024953
0.00250941
0.00251814
0.00252257
0.00270837
0.00270584
0.0027044
0.00270145
0.002668
0.00272559
0.0027452
0.00274936
0.00275284
0.00275594
0.00266888
0.00266069
0.00264894
0.00263589
0.00261056
0.00266024
0.00270325
0.00271528
0.00271816
0.00271792
0.00247161
0.00245945
0.00244443
0.00243593
0.00245178
0.00260394
0.00262909
0.00263615
0.00264317
0.00264913
0.00270792
0.00270605
0.00270108
0.00268527
0.00263873
0.00281545
0.00283484
0.00284287
0.00285508
0.00286544
0.0027596
0.00275279
0.0027437
0.00273342
0.00270435
0.00248562
0.00253966
0.00256409
0.00258295
0.00259622
0.00257112
0.00256128
0.00255008
0.00253306
0.00246783
0.00230882
0.00218874
0.0022181
0.00223759
0.00225759
0.00227959
0.00237813
0.00236009
0.00234062
0.00233017
0.00236937
0.00238743
0.00240994
0.00242853
0.00237893
0.00235174
0.00232433
0.00229369
0.00223743
0.00234073
0.00232136
0.00223125
0.00214982
0.0022467
0.00231227
0.00216367
0.00220816
0.00234906
0.00221887
0.00208054
0.0021796
0.002347
0.00237857
0.00214394
0.00213594
0.0023692
0.00224362
0.00213035
0.00216467
0.00231258
0.0023563
0.00218992
0.00206003
0.00212185
0.00190716
0.00199153
0.00212981
0.00222401
0.00238518
0.002492
0.00247594
0.00241335
0.00231725
0.0022022
0.00205748
0.00189908
0.00172452
0.00156092
0.00136368
0.00119542
0.00113781
0.00117202
0.00117793
0.00117507
0.00117112
0.0014384
0.001437
0.00143846
0.00144555
0.00143843
0.00160233
0.00163733
0.00165262
0.00165721
0.00165734
0.00190759
0.00190466
0.00190343
0.00190657
0.00189428
0.00204573
0.00204774
0.00204605
0.00204726
0.00204869
0.00206701
0.00206247
0.00205696
0.00205304
0.00203548
0.00225339
0.00225801
0.00225933
0.00226363
0.0022676
0.00231099
0.0023052
0.00229791
0.00229073
0.00227263
0.00247677
0.00248612
0.00249264
0.00249986
0.00250521
0.00262077
0.00261656
0.00260799
0.00259287
0.00256162
0.00264666
0.00266517
0.00267558
0.00268417
0.00268996
0.00281527
0.0028132
0.00280914
0.00279658
0.00274497
0.00282487
0.00285561
0.00286855
0.00287594
0.00288113
0.00288378
0.00287816
0.00286912
0.00285417
0.00282576
0.00267846
0.00271097
0.0027294
0.00274592
0.00275815
0.0028783
0.0028733
0.00286774
0.00286105
0.00283907
0.00273064
0.00277742
0.00277793
0.00270589
0.00282063
0.00286302
0.00286949
0.00287111
0.00287351
0.00279052
0.002784
0.00277281
0.00275738
0.00273594
0.00293196
0.00295894
0.00296425
0.00297007
0.00297583
0.00301169
0.00300724
0.00300167
0.00299266
0.00295462
0.00291482
0.00295622
0.00296729
0.00297605
0.0029829
0.00277044
0.00275794
0.00274194
0.00272723
0.00269866
0.00265262
0.00271069
0.00272973
0.00273892
0.00274427
0.00257725
0.00257314
0.00256587
0.0025465
0.00248872
0.00224044
0.00215233
0.00220554
0.002235
0.00225965
0.0022841
0.00233102
0.0023161
0.00229622
0.00227755
0.00229312
0.00230267
0.0023182
0.00233077
0.00230231
0.00229131
0.00227824
0.00225877
0.00221523
0.00229187
0.00231343
0.00221801
0.00224396
0.00232146
0.00241047
0.00256411
0.00258411
0.00255044
0.00257856
0.00259202
0.00259941
0.00260421
0.00251169
0.00250629
0.00249857
0.00249243
0.00249572
0.00237635
0.00241171
0.0024204
0.00241955
0.00241717
0.00233964
0.00233529
0.00233117
0.00232719
0.00233034
0.00219273
0.00208427
0.00208495
0.00208985
0.00209425
0.00209968
0.00220406
0.00220132
0.00219729
0.00219339
0.00224854
0.00225119
0.00225838
0.00226489
0.00219372
0.00218885
0.00218339
0.00217369
0.0021524
0.00224666
0.00223846
0.0021411
0.00210679
0.00219869
0.00225848
0.0021237
0.00209928
0.0022
0.00220132
0.00208877
0.00212644
0.00223753
0.00191534
0.00199415
0.00200274
0.00198633
0.00212674
0.00210322
0.0020801
0.00213224
0.00210371
0.0020561
0.00208621
0.00212025
0.00215485
0.00207947
0.00185338
0.00162203
0.00146623
0.00181901
0.00184115
0.00159022
0.00212926
0.00203368
0.00186037
0.00173549
0.00152202
0.00178619
0.00174365
0.00140607
0.00112572
0.0016724
0.00166656
0.00120869
0.00114854
0.00165013
0.00168704
0.00128668
0.00126836
0.00168181
0.00168121
0.00125725
0.00152793
0.00180629
0.00186052
0.00155813
0.00149679
0.00181076
0.00175208
0.00137655
0.00130023
0.00172107
0.00180639
0.00151878
0.00148356
0.00180365
0.0018871
0.00158533
0.00152595
0.00164744
0.00160071
0.00168085
0.00161375
0.00160622
0.00160793
0.00160695
0.0017051
0.00170287
0.00169954
0.0017054
0.00175766
0.00227593
0.00216362
0.00213127
0.00211228
0.00210032
0.00175884
0.00175576
0.00175258
0.00176737
0.00187543
0.00219923
0.00216825
0.00214131
0.00212314
0.00211255
0.00194492
0.00193125
0.00191557
0.00191356
0.00197922
0.00181723
0.00167647
0.00156104
0.0016508
0.00158979
0.00158118
0.00158185
0.00158017
0.00180982
0.00181148
0.00181156
0.0018141
0.00185893
0.00220211
0.00212831
0.0021014
0.00209023
0.00208489
0.00187692
0.0018739
0.00187061
0.00188106
0.00196136
0.00221983
0.00220411
0.0021841
0.00217141
0.00216409
0.00195448
0.00194901
0.00194351
0.00195515
0.00206001
0.0019467
0.00187136
0.00181812
0.00187726
0.00188842
0.00182149
0.00180901
0.00180937
0.00181111
0.00204315
0.0020488
0.00205981
0.0020798
0.00209857
0.00212678
0.00210006
0.00208325
0.00207522
0.00207148
0.00197732
0.00197543
0.00197318
0.00197828
0.00201863
0.00208492
0.00202367
0.0020167
0.00201918
0.00202139
0.00203061
0.00216939
0.00210566
0.00208525
0.00194978
0.00193348
0.00189443
0.00189092
0.0018947
0.00189773
0.00211919
0.00212099
0.00212867
0.00214579
0.00216326
0.0021589
0.00214242
0.00213245
0.00213003
0.00213052
0.00196833
0.00196597
0.00196098
0.0019546
0.00196088
0.00201187
0.00198188
0.00196818
0.00196459
0.00196434
0.00167272
0.00167058
0.00166509
0.001654
0.00163562
0.00159633
0.00160421
0.00159783
0.001595
0.00159402
0.00147377
0.00147396
0.00147552
0.00148285
0.00148625
0.00127917
0.00129461
0.00128942
0.00128891
0.0012909
0.00123807
0.00124625
0.00125714
0.00126214
0.0012316
0.000964471
0.000936369
0.000928661
0.00092656
0.000925753
0.000923616
0.000923526
0.000925699
0.000932141
0.000953023
0.00113511
0.00113863
0.00114306
0.00113978
0.00113323
0.00135057
0.00134924
0.00134985
0.00135727
0.00136891
0.00158253
0.00157522
0.00157341
0.00157582
0.0015789
0.00183678
0.00183828
0.00183659
0.00182456
0.00178414
0.00210458
0.00213681
0.00213375
0.00212617
0.00212212
0.00210345
0.00210603
0.00210424
0.00209137
0.0020629
0.00235285
0.00236483
0.00236046
0.00235736
0.00235789
0.00264689
0.0026462
0.0026464
0.00264206
0.00260298
0.00257721
0.00260484
0.00261986
0.00262793
0.00263094
0.00271734
0.00270864
0.00269851
0.00269235
0.00269898
0.0028137
0.0028454
0.00284999
0.0028513
0.0028531
0.0029306
0.00292651
0.00292189
0.00291703
0.00289305
0.00281921
0.00285424
0.00286834
0.0028782
0.00288506
0.00290278
0.00289659
0.00288771
0.00287501
0.00284196
0.0028095
0.00283982
0.00285398
0.00286427
0.0028715
0.00289468
0.00289182
0.00288805
0.00288047
0.0028598
0.00270178
0.00271785
0.00272544
0.00273024
0.00273278
0.00265603
0.00265419
0.0026535
0.00265666
0.00266483
0.00253831
0.00252937
0.00252512
0.00252484
0.00252536
0.00236232
0.00236232
0.00236383
0.00237021
0.00239018
0.00225509
0.00222849
0.00222763
0.00223013
0.00223248
0.00221392
0.00221611
0.00221949
0.00222172
0.00223139
0.00208839
0.00201455
0.00201081
0.00201112
0.00201207
0.0020125
0.00210625
0.0021104
0.00211414
0.00210948
0.00214236
0.00214416
0.00214436
0.00214447
0.00204872
0.00204524
0.00204244
0.00204318
0.00205656
0.00214155
0.0021412
0.00205549
0.00208568
0.00219022
0.00231399
0.00211393
0.00204573
0.00210659
0.00197331
0.00201733
0.00200805
0.00195412
0.00191099
0.0019674
0.00198074
0.00195168
0.0019847
0.00200521
0.00202681
0.00201132
0.00192005
0.00197348
0.00202999
0.002024
0.00199963
0.00199821
0.00200706
0.00202183
0.00187862
0.00191975
0.0019701
0.00204667
0.0021223
0.00215841
0.00211606
0.00198821
0.00179061
0.00153772
0.00126407
0.00101632
0.000837091
0.000704025
0.000618023
0.000703119
0.000681248
0.000675022
0.000673114
0.000672044
0.00078757
0.000796449
0.000805301
0.000811014
0.000814535
0.00100563
0.000989021
0.000974995
0.000964216
0.000957304
0.00102557
0.00103601
0.00104643
0.00104936
0.00104651
0.00117002
0.00112109
0.001114
0.00111807
0.00112273
0.00139259
0.00140168
0.0014096
0.00140522
0.00139013
0.00158468
0.00158171
0.00158049
0.00158346
0.00158575
0.00185814
0.0018539
0.00184928
0.00184882
0.00185845
0.00195235
0.00196831
0.0019645
0.0019596
0.00195618
0.00202301
0.00202891
0.00203195
0.00202208
0.00199279
0.00217203
0.00215708
0.00216003
0.00217141
0.00218112
0.0024688
0.00246394
0.00245934
0.00245495
0.00244441
0.00251169
0.00253674
0.00254059
0.00254038
0.00254075
0.00254566
0.00254461
0.00254041
0.00252853
0.00251058
0.00264381
0.0026433
0.00264806
0.0026584
0.00266767
0.00281022
0.00280392
0.0027953
0.00278656
0.00277189
0.00276508
0.00278418
0.0027897
0.00279115
0.00279119
0.00280706
0.00280607
0.00280396
0.0028007
0.00278719
0.00267622
0.00266521
0.00266683
0.00267145
0.0026752
0.00275404
0.00275024
0.00274736
0.00274839
0.00274819
0.00269212
0.00269519
0.00269492
0.00269291
0.00269134
0.00257074
0.0025718
0.00257235
0.00257203
0.00258171
0.00244047
0.0024291
0.00242977
0.00243175
0.00243305
0.00233338
0.00233222
0.00233065
0.00232731
0.00232115
0.00210541
0.00211003
0.00211917
0.00212686
0.00213155
0.00217602
0.00217195
0.00216609
0.00215618
0.00213277
0.00221437
0.00220189
0.00219389
0.00218726
0.00218294
0.00205071
0.00205942
0.0020678
0.00206675
0.00198606
0.00198561
0.00198634
0.00198649
0.00198022
0.00197998
0.00197875
0.00197864
0.00201234
0.0020137
0.00200626
0.00199824
0.00221837
0.00222248
0.00222927
0.00223307
0.00221964
0.00199522
0.00199705
0.0020527
0.00203904
0.00198158
0.00202326
0.00201455
0.0019583
0.00191689
0.00201219
0.00201729
0.00201591
0.00201094
0.00200742
0.00191614
0.00191503
0.00191195
0.00190915
0.00201209
0.00201132
0.00200187
0.00199507
0.00186572
0.00186613
0.00186487
0.00185896
0.00186186
0.00210858
0.00202985
0.00201369
0.00200335
0.00199722
0.00199229
0.0019946
0.0019988
0.00200939
0.00213198
0.00191244
0.00198146
0.00195898
0.00195599
0.00195487
0.00195233
0.00194581
0.00195362
0.00196224
0.00196163
0.00195237
0.0019605
0.00195924
0.00195813
0.00196193
0.0019641
0.00196602
0.00196591
0.00195666
0.00188073
0.00190089
0.00199282
0.00202025
0.00201053
0.0018908
0.00196589
0.00195827
0.00186358
0.00212607
0.00203296
0.00200116
0.00207348
0.00204957
0.00200165
0.00202087
0.00200973
0.00192946
0.00191468
0.00190993
0.00185319
0.00183145
0.00181391
0.00181581
0.0018265
0.00181711
0.00174205
0.0015955
0.00140702
0.00119066
0.00099823
0.000848436
0.000717484
0.0007733
0.000777971
0.000773584
0.000764722
0.000757324
0.000662976
0.000661358
0.000660181
0.000665225
0.000703371
0.00090768
0.000927604
0.000924259
0.000911973
0.000899929
0.000897834
0.000897157
0.000896443
0.000898575
0.000914545
0.00112063
0.00108462
0.001078
0.00107717
0.00107717
0.00136753
0.00137682
0.00138483
0.00138137
0.00135576
0.00148528
0.0014443
0.00144113
0.00144947
0.0014577
0.00180126
0.00179937
0.00179721
0.00179792
0.00180644
0.00184933
0.00185716
0.00185665
0.00185465
0.00185424
0.00192691
0.00193292
0.00193642
0.00192945
0.00190768
0.00212083
0.00209425
0.00209496
0.00210562
0.0021164
0.0023814
0.00237847
0.00237503
0.00237612
0.00239187
0.00233372
0.00234117
0.00234498
0.00234447
0.00234328
0.00233207
0.00233409
0.0023344
0.00233065
0.0023359
0.00255176
0.002532
0.00252618
0.00253087
0.00253794
0.00263916
0.00263403
0.00263135
0.00264056
0.00266131
0.00274132
0.00271787
0.00270934
0.00271073
0.00271446
0.00255291
0.00255605
0.00255753
0.00255574
0.00256365
0.0025461
0.00253594
0.00253901
0.00253943
0.00253849
0.00247275
0.00247323
0.00247348
0.00247436
0.0024903
0.00239
0.00238131
0.00238015
0.00237938
0.00237921
0.00229918
0.00230016
0.00230207
0.00230368
0.00230013
0.0022265
0.00222859
0.00222714
0.00222488
0.00222354
0.00208978
0.00208514
0.00207732
0.00206651
0.00205632
0.00199551
0.00198547
0.00198862
0.00199356
0.00199698
0.00210245
0.00211032
0.00212253
0.00213553
0.00214373
0.00196813
0.00199103
0.0019875
0.00197906
0.00197116
0.00195586
0.00195787
0.00195838
0.00195741
0.00196503
0.00201912
0.00199932
0.00199257
0.00198765
0.00198461
0.00195581
0.00182195
0.00208445
0.00206173
0.00181371
0.00221725
0.00190034
0.00187186
0.00236675
0.00196291
0.0018411
0.00247648
0.00183794
0.0021668
0.00196718
0.00238656
0.00199875
0.0020111
0.00189646
0.00180259
0.00165746
0.00156089
0.00146901
0.00138994
0.00130089
0.00119335
0.0010419
0.00089932
0.000767402
0.000674265
0.000590012
0.000602361
0.000588718
0.000583
0.000577832
0.000573617
0.00057264
0.000583256
0.000594203
0.000601768
0.000611101
0.000786282
0.000745193
0.000729662
0.000726962
0.000728107
0.000916237
0.000920884
0.000929681
0.000947857
0.000989765
0.0010684
0.00105778
0.00105467
0.00104462
0.00103382
0.00130744
0.00130271
0.00130231
0.00132127
0.00138025
0.00164719
0.00160205
0.0015857
0.00158123
0.00158043
0.00168797
0.0016966
0.00170385
0.00170477
0.0017181
0.00204834
0.00200249
0.00198965
0.0019944
0.00200233
0.00223092
0.00222934
0.00223137
0.00224458
0.00228185
0.00206744
0.00204019
0.00203622
0.00203509
0.00203413
0.00222571
0.00222647
0.00222849
0.00223179
0.00224485
0.00234799
0.00233444
0.00232974
0.00232686
0.00232522
0.00239872
0.00240201
0.00240781
0.00241141
0.00240947
0.00239364
0.00239016
0.00238623
0.00238037
0.00237676
0.00238514
0.00239218
0.00240202
0.00240895
0.00240892
0.00229167
0.00227893
0.00227603
0.0022751
0.00227521
0.00214853
0.00214892
0.0021496
0.00215263
0.0021691
0.00216507
0.00217567
0.00217813
0.0021796
0.00218095
0.00212583
0.00212705
0.00212954
0.00213092
0.00211866
0.00198432
0.00196056
0.00195794
0.00196112
0.00196385
0.00211342
0.00212474
0.00214128
0.00215319
0.00213308
0.00196439
0.00190433
0.00190073
0.00190744
0.00191252
0.00191774
0.0019162
0.00191322
0.0019146
0.00194766
0.00187926
0.00184132
0.00183422
0.00183242
0.00183065
0.00193913
0.00194788
0.0019604
0.00197282
0.00198101
0.00184296
0.00188661
0.00187959
0.00186657
0.00185608
0.00190325
0.00191324
0.00192935
0.00194133
0.00189464
0.0018214
0.00181409
0.0018159
0.00181553
0.00181393
0.00197959
0.00198664
0.00199365
0.00199435
0.00197847
0.00198016
0.00190051
0.00183651
0.00199039
0.00199086
0.00184705
0.00186291
0.00186229
0.00185749
0.00185257
0.00195566
0.00196142
0.00196705
0.00197311
0.00199953
0.00189038
0.00183531
0.00196556
0.00193652
0.00179492
0.00187214
0.00195399
0.00194706
0.00182071
0.00181562
0.00194549
0.00197924
0.00196794
0.00223403
0.00208135
0.0020631
0.00219702
0.00217099
0.00205082
0.00196733
0.00190815
0.00194493
0.00199307
0.00199266
0.0019747
0.00199144
0.00201381
0.00199955
0.00196253
0.00189867
0.00196288
0.0019762
0.00191748
0.00200085
0.00200074
0.00203353
0.00204703
0.00197865
0.00201866
0.00196439
0.00196532
0.00204221
0.00200087
0.00197662
0.00196815
0.00192392
0.0019371
0.00185825
0.0016131
0.00133332
0.00174368
0.00173526
0.00131718
0.00134684
0.00174106
0.00182685
0.00167492
0.00140838
0.00172272
0.00176169
0.00135277
0.00140409
0.00176225
0.00180007
0.00156396
0.00173958
0.00187557
0.00188526
0.00178453
0.00202595
0.00196117
0.00195706
0.00205132
0.00244558
0.00209907
0.00194254
0.00196754
0.00205996
0.00195286
0.00164525
0.00120145
0.000778247
0.000529341
0.000604956
0.000817533
0.00129153
0.0016151
0.00200155
0.00224313
0.00228693
0.00230691
0.00232037
0.00265605
0.00267061
0.00268535
0.00268483
0.00260006
0.00196321
0.0020973
0.00211594
0.00211445
0.00210802
0.0027394
0.00276288
0.00279082
0.0027924
0.00268588
0.0020004
0.00203346
0.00203859
0.00204052
0.00203927
0.00279647
0.00282306
0.00285977
0.00288291
0.00278203
0.0027009
0.0029109
0.00293827
0.00292972
0.00291794
0.00209829
0.00210152
0.00209928
0.00207951
0.00196797
0.00157008
0.00173163
0.00174309
0.00174302
0.00174214
0.00226818
0.0022797
0.00229216
0.0022981
0.00230124
0.00167468
0.00167909
0.00168299
0.00168481
0.00168181
0.00157618
0.00157745
0.00157869
0.00157989
0.00154696
0.00220453
0.00212362
0.00209468
0.00207695
0.00206436
0.00200632
0.00202322
0.00205058
0.00208651
0.00209425
0.00208024
0.00197717
0.00195063
0.0019393
0.0019324
0.00192748
0.00193791
0.0019568
0.0019881
0.00204209
0.00189225
0.00180068
0.00178709
0.00179139
0.00179632
0.00162726
0.0015742
0.00156685
0.00156688
0.00156518
0.00171952
0.00171833
0.00171533
0.00171765
0.00175708
0.00205026
0.00201589
0.00199129
0.00197678
0.00196948
0.00193177
0.00193301
0.00193839
0.00196199
0.00206087
0.00192654
0.00191601
0.00191693
0.00191804
0.00191817
0.00194144
0.00193984
0.001936
0.0019329
0.00194766
0.00195753
0.00186429
0.00184758
0.00171558
0.00168624
0.00166805
0.00167104
0.00167575
0.00167836
0.00194632
0.00195037
0.00195863
0.00197701
0.00200144
0.00204692
0.00201511
0.00199635
0.00198866
0.00198577
0.00171266
0.00171135
0.00170797
0.00170077
0.00168897
0.00170124
0.00169501
0.00168557
0.00168015
0.00167715
0.00157217
0.00157577
0.00158472
0.00160117
0.00159957
0.00140761
0.00142556
0.00141779
0.00141383
0.00141359
0.00111338
0.00111349
0.00110911
0.00109497
0.00106079
0.00100392
0.001033
0.00104424
0.00104775
0.00104701
0.000912669
0.000915022
0.00092019
0.000928624
0.000925144
0.000853198
0.000852751
0.000846245
0.000841926
0.000839798
0.000787699
0.000795849
0.000807174
0.000819303
0.000829629
0.000678512
0.000686095
0.000687162
0.000684036
0.000679587
0.000607267
0.000608144
0.000609785
0.000613239
0.000618156
0.000621611
0.000601611
0.000594124
0.000590508
0.000588487
0.000611085
0.000613108
0.000617532
0.000626238
0.000644501
0.000725304
0.000732583
0.000728356
0.000718892
0.00071011
0.000695517
0.000697496
0.000700386
0.000706906
0.000728997
0.00087394
0.000839344
0.000831662
0.000831132
0.000831093
0.000807875
0.000695382
0.000769478
0.000740035
0.000728631
0.000723768
0.000721678
0.000691035
0.00063599
0.000653321
0.000667868
0.000668191
0.000663472
0.000658676
0.000586062
0.000585362
0.00058513
0.000589583
0.000618653
0.000648364
0.000614039
0.00060649
0.000605162
0.000605259
0.000636194
0.000635237
0.000634429
0.000636659
0.000658375
0.000603071
0.000587083
0.000585625
0.000587612
0.0005891
0.000636751
0.000637134
0.000639244
0.000647757
0.000674291
0.000820918
0.000826753
0.00082087
0.000808244
0.000796911
0.000828727
0.000823938
0.000819877
0.00082514
0.000861848
0.0010859
0.00105762
0.0010468
0.00104289
0.00104142
0.0012774
0.00128718
0.00129587
0.00129168
0.00126343