/*--------------------------------*- C++ -*----------------------------------*\
  =========                 |
  \\      /  F ield         | OpenFOAM: The Open Source CFD Toolbox
   \\    /   O peration     | Website:  https://openfoam.org
    \\  /    A nd           | Version:  7
     \\/     M anipulation  |
\*---------------------------------------------------------------------------*/
FoamFile
{
    version     2.0;
    format      ascii;
    class       volVectorField;
    location    "2";
    object      wallShearStress;
}
// * * * * * * * * * * * * * * * * * * * * * * * * * * * * * * * * * * * * * //

dimensions      [0 2 -2 0 0 0 0];

internalField   uniform (0 0 0);

boundaryField
{
    outlet1
    {
        type            calculated;
        value           uniform (0 0 0);
    }
    Wall
    {
        type            calculated;
        value           nonuniform List<vector> 
40276
(
(0.00017448 5.72676e-05 0.00022666)
(-0.000184643 -4.88456e-06 0.000415509)
(-0.000187773 -4.55942e-06 0.000406602)
(0.000224384 -0.000234516 0.000173744)
(0.000171695 -0.000167885 0.000154736)
(0.00012155 -0.000126053 0.000158021)
(9.82883e-05 -7.93622e-05 0.000158785)
(0.000111275 -5.56845e-05 0.000174241)
(9.08454e-05 -3.38506e-05 0.000167354)
(9.17415e-05 -4.91566e-05 0.000173335)
(0.000509674 4.55107e-05 0.000493172)
(0.000602096 1.42397e-05 0.000537415)
(0.000583663 2.09768e-05 0.000935981)
(0.000561419 2.69009e-05 0.000867496)
(0.000222275 2.6013e-05 0.00024147)
(0.000212613 4.06161e-05 0.000275596)
(0.000207562 5.6489e-05 0.000198497)
(0.000219419 4.24566e-05 0.000140548)
(2.71582e-05 -0.000178956 5.1623e-05)
(4.17368e-05 -0.000226861 7.67596e-05)
(-8.96142e-05 2.35342e-05 0.000194379)
(-0.000116148 2.7441e-05 0.000184564)
(-9.49907e-05 2.61074e-05 6.43171e-05)
(-0.000111379 2.43172e-05 6.1073e-05)
(-8.55573e-05 2.04117e-05 4.1721e-05)
(-9.70561e-05 2.14762e-05 3.64624e-05)
(-6.57734e-05 3.16344e-05 -1.08878e-06)
(-6.8575e-05 3.11173e-05 -9.03548e-07)
(-0.000197581 6.2971e-05 5.99398e-05)
(-0.000156234 4.72518e-05 4.93857e-05)
(-0.000213476 7.00011e-05 0.000144852)
(-0.000255441 8.89209e-05 0.000155755)
(-5.27677e-05 -3.08796e-06 0.000160265)
(-4.69996e-05 -4.78564e-06 0.00014899)
(-3.48538e-05 8.94942e-06 4.49058e-06)
(-3.49169e-05 9.86041e-06 4.41864e-06)
(0.000573202 4.13481e-05 7.64261e-05)
(0.000604587 1.10604e-05 5.84965e-05)
(0.00120394 0.000276489 0.000147309)
(0.00143413 0.000390859 0.000160678)
(0.000944862 3.11467e-05 -3.22363e-06)
(0.000851487 -1.39175e-06 1.87089e-05)
(6.94041e-05 -2.09196e-05 -0.000573515)
(8.99247e-05 -2.02367e-05 -0.000564869)
(6.75835e-05 2.26123e-06 -0.000555542)
(4.89049e-05 -1.12869e-05 -0.000506598)
(8.85411e-06 4.45819e-06 -0.000513383)
(1.22811e-05 -5.80553e-06 -0.000450363)
(-2.15529e-05 -7.80059e-07 -0.000418392)
(-3.8131e-05 3.14632e-06 -0.000377226)
(-3.6576e-05 -5.47868e-06 -0.000340707)
(-5.97283e-05 4.3293e-06 -0.000352997)
(-6.30907e-05 -2.83673e-06 -0.00030973)
(-7.28761e-05 6.64003e-06 -0.000310489)
(0.000505393 7.47693e-05 0.000217815)
(0.000498739 8.65633e-05 0.00016978)
(-0.000143439 5.81304e-05 0.000257673)
(6.18648e-05 2.16018e-05 0.000184278)
(-0.000155207 5.78807e-05 0.000262559)
(-0.000563036 6.82595e-05 -0.000535566)
(-0.000601745 4.24078e-05 -0.000554665)
(1.84057e-05 3.35744e-05 0.000281989)
(-1.24493e-05 -1.14236e-05 0.000218581)
(2.11461e-05 -5.80788e-07 1.52341e-05)
(1.94715e-05 -4.7548e-07 1.58383e-05)
(1.98662e-05 -1.71868e-07 1.47139e-05)
(1.88435e-05 -3.57443e-07 1.3581e-05)
(2.098e-05 -4.31447e-07 1.52774e-05)
(-0.000126792 3.54202e-07 -0.000116444)
(-0.000138932 1.47081e-05 -0.000125724)
(-8.37042e-05 1.00882e-05 -0.000283686)
(-7.37849e-05 -2.72862e-06 -0.000290447)
(-7.17258e-05 5.36917e-06 -7.10894e-05)
(-7.27749e-05 5.45358e-06 -6.78148e-05)
(-6.38751e-05 4.8203e-06 -6.19582e-05)
(-6.41451e-05 6.93552e-06 -6.06276e-05)
(-7.13908e-05 3.39985e-06 -6.48198e-05)
(1.83729e-05 -8.55464e-07 -9.85186e-06)
(1.56127e-05 -1.02021e-06 -1.43307e-05)
(5.71592e-06 2.57904e-06 -6.52707e-07)
(6.80098e-06 3.62649e-07 -4.32677e-07)
(9.75487e-06 2.43881e-07 -6.78611e-07)
(2.44163e-05 -1.39588e-05 1.68393e-05)
(2.30726e-05 -1.56287e-05 1.7221e-05)
(1.6655e-05 -3.67524e-05 1.04486e-05)
(1.74059e-05 -6.88034e-08 1.44729e-05)
(1.65326e-05 -2.44977e-07 1.31485e-05)
(1.47417e-05 -2.35987e-07 1.42141e-05)
(1.43444e-05 -3.81724e-05 9.46862e-06)
(-4.11086e-08 -4.63622e-05 2.21874e-06)
(-1.49652e-06 -4.4978e-05 1.70737e-06)
(-3.10426e-05 -1.13549e-06 -2.84079e-05)
(1.42624e-05 -9.19834e-08 1.29312e-05)
(1.20288e-05 -2.85817e-07 1.39857e-05)
(1.19039e-05 -8.21852e-08 1.28249e-05)
(9.31203e-06 3.5172e-08 1.24162e-05)
(6.80971e-06 -4.04527e-08 1.20379e-05)
(4.49127e-06 -1.02638e-07 1.18343e-05)
(2.53703e-07 2.63593e-07 9.87567e-06)
(-1.70624e-06 1.47768e-07 9.4601e-06)
(-3.57735e-06 -2.61597e-08 9.07309e-06)
(-9.38748e-06 3.53673e-07 5.16921e-06)
(-1.04921e-05 1.59814e-07 4.21971e-06)
(-3.39835e-05 4.00878e-06 -3.00999e-05)
(-1.15041e-05 7.48878e-08 3.16933e-06)
(-2.54097e-06 -3.4126e-06 -3.1658e-06)
(-1.63606e-06 -4.88721e-06 -2.00285e-06)
(-1.20533e-05 -1.31212e-07 2.03467e-06)
(-1.24565e-05 -2.63449e-07 7.25519e-07)
(-1.13464e-05 3.75356e-07 -1.50153e-07)
(-1.24542e-05 -4.02204e-07 -6.83679e-07)
(-1.10912e-05 2.60176e-07 -1.617e-06)
(-1.18233e-05 -5.62937e-07 -2.18155e-06)
(-1.0679e-05 1.36207e-07 -2.94306e-06)
(-1.03141e-05 -4.91769e-07 -3.52212e-06)
(-8.49e-06 -1.59558e-06 -1.89703e-05)
(-7.933e-06 -1.812e-06 -1.96823e-05)
(-7.70373e-06 -2.09448e-06 -1.81298e-05)
(-0.000235021 -6.02862e-05 0.00046753)
(-0.000234387 -5.80153e-05 0.000423825)
(-1.39362e-05 -3.04244e-06 1.76724e-05)
(-2.50335e-05 -3.74039e-06 2.40027e-05)
(2.33925e-07 -1.70928e-06 1.48249e-05)
(4.87955e-06 -1.28509e-06 9.96699e-06)
(-2.62377e-06 -1.83696e-05 -3.70453e-06)
(-6.78934e-08 -1.37527e-05 -9.31871e-07)
(-0.000127806 3.44763e-05 0.000184453)
(-0.000110326 4.46297e-05 0.000156024)
(-0.000161203 -1.08968e-05 0.000276071)
(-0.00014106 -1.6797e-05 0.000238023)
(-0.000106261 -1.1363e-06 0.000178439)
(-9.29047e-05 -4.21185e-06 0.000153517)
(-0.000164722 7.97534e-05 0.000494124)
(-0.000230134 0.000141839 0.000696849)
(2.08072e-05 -1.64959e-05 0.000188967)
(1.39906e-05 -1.00569e-05 0.000158638)
(-9.59913e-05 2.5662e-05 0.000193873)
(-5.01535e-05 -2.44928e-07 0.000169054)
(-0.000192784 -3.75518e-05 0.000514639)
(-0.000194569 -1.91754e-05 0.000511891)
(-0.000192776 -3.20847e-05 0.00054024)
(-0.000211804 -7.96131e-06 0.000543929)
(-0.000559548 7.54688e-06 -0.000150964)
(-0.000641028 7.51225e-06 -0.00018301)
(-2.27686e-05 -7.96729e-05 9.96303e-06)
(-2.65627e-05 -7.89364e-05 1.19298e-05)
(-2.17148e-05 -4.38633e-05 6.54598e-05)
(-2.54518e-05 -5.3644e-05 8.17932e-05)
(-2.92038e-05 -5.25363e-05 6.60637e-05)
(-2.33872e-05 -4.04446e-05 5.37287e-05)
(-1.54773e-05 -8.6151e-05 8.48822e-06)
(-1.99043e-05 -9.83589e-05 6.5334e-06)
(-2.35339e-05 -8.34857e-05 8.82145e-06)
(-2.19166e-05 -8.64941e-05 9.21461e-06)
(-2.31366e-05 -0.000128638 -1.56102e-05)
(-1.99751e-05 -0.000111411 -1.41257e-05)
(-7.64661e-06 -5.66218e-05 -3.31677e-06)
(-9.88243e-06 -5.05371e-05 -4.75778e-06)
(-6.08321e-05 -3.06407e-05 9.43254e-05)
(-5.56209e-05 -3.24622e-05 8.91237e-05)
(6.93987e-05 5.15424e-06 -0.000243539)
(6.86944e-05 -2.69972e-06 -0.000229965)
(-0.00013706 -5.7387e-05 -1.24195e-05)
(-0.000136145 -6.41594e-05 -1.46019e-05)
(-0.000328043 -5.11301e-05 0.000124885)
(-0.00035042 -5.58787e-05 0.000113394)
(-0.000287195 -6.92112e-05 -2.56754e-05)
(-0.000280171 -5.73937e-05 -3.46269e-05)
(-0.000158204 0.000184115 0.00021511)
(-0.000151249 0.000230507 0.000198253)
(-0.000241673 -4.49958e-05 1.27877e-05)
(-0.000127127 -4.59834e-05 -1.79395e-05)
(-0.000202833 -7.89399e-05 7.34445e-05)
(-0.000175149 -7.74079e-05 6.22392e-05)
(-0.000221115 -5.26182e-05 5.71863e-05)
(-6.55791e-05 -4.13953e-05 -6.92542e-06)
(-3.91757e-05 -2.09054e-05 6.06151e-05)
(-3.22857e-05 -1.93821e-05 5.59648e-05)
(0.000767686 -0.000350566 0.000471018)
(0.000665729 -0.000289606 0.000365664)
(0.000704989 -0.000447657 0.000221143)
(0.000594003 -0.000302645 0.000238395)
(0.000623859 -0.000378458 0.000204642)
(0.000424779 -0.000380939 0.000173322)
(0.000534541 -0.00041941 0.000212451)
(0.000422253 -0.000356769 0.000169344)
(0.000633801 -0.000347795 0.000398083)
(0.000687618 -0.000424079 0.000396343)
(0.000649673 -0.000392623 0.000310583)
(0.000562955 -0.000452528 0.000172965)
(0.00065506 -0.000467233 0.000163295)
(0.000543254 -0.000390269 0.000200354)
(0.000288258 -0.000275672 0.000159319)
(0.000410543 -0.00038272 0.000179031)
(0.000329615 -0.000297346 0.000176022)
(0.000277818 -0.0002756 0.000174686)
(0.000133957 -0.000121755 0.000160917)
(5.07442e-05 1.64771e-05 0.000266357)
(6.12006e-05 2.50179e-05 0.000247827)
(7.64888e-05 3.58046e-05 0.000220462)
(7.46246e-05 3.48634e-05 0.000193)
(0.000115536 4.30438e-05 0.000200245)
(5.15487e-05 2.62163e-05 0.000221761)
(5.74834e-05 3.25428e-05 0.000211099)
(0.000150016 4.7326e-06 0.000280503)
(0.000163849 1.60923e-05 0.000307258)
(0.000108877 -1.27051e-05 0.000189487)
(0.000127037 -2.48816e-05 0.0002283)
(0.000109743 -3.59574e-05 0.000193572)
(9.48315e-05 -2.50743e-05 0.000172704)
(0.000125659 -2.03278e-05 0.000238852)
(0.00012303 -4.62635e-06 0.000252839)
(0.00010201 -1.75746e-05 0.000225797)
(9.40425e-05 -3.0353e-05 0.000202129)
(8.58056e-05 -1.62799e-05 0.000167076)
(8.12485e-05 -1.38477e-05 0.000153395)
(7.34049e-05 -2.93276e-05 0.000141304)
(0.00010514 -1.0584e-05 0.000199919)
(6.90099e-05 -1.845e-05 0.000150011)
(5.46677e-05 -3.054e-05 0.000134726)
(0.000118637 -1.33782e-05 0.000364901)
(0.000101937 -1.451e-05 0.000351467)
(7.34065e-05 -1.69032e-05 0.000339511)
(3.29822e-05 -1.61962e-05 0.000314271)
(0.00013381 -1.35163e-05 0.000338564)
(8.13844e-05 -3.61357e-05 0.000300784)
(4.64834e-05 -3.09796e-05 0.000260686)
(1.45054e-05 -3.11721e-05 0.000224132)
(1.93126e-05 -4.80371e-05 0.000222005)
(7.03991e-06 -1.2773e-05 0.000228192)
(-2.55817e-05 -3.61537e-05 0.00020028)
(1.63495e-05 4.77801e-06 0.000187746)
(2.35785e-05 1.40958e-05 0.000170281)
(-1.69203e-05 -1.63971e-05 0.000148126)
(-4.32822e-06 -1.05865e-06 0.000142248)
(9.46962e-05 -2.02075e-05 0.000224484)
(8.85507e-05 -1.59093e-05 0.000220372)
(6.42052e-05 -3.6932e-05 0.000201882)
(1.40406e-05 -6.04735e-05 0.000214922)
(5.73928e-05 -2.99407e-05 0.000162349)
(5.65252e-06 -4.88705e-05 0.000130454)
(-4.01584e-06 -4.47559e-05 0.000161202)
(-3.08953e-05 -4.29459e-05 0.000141502)
(-2.85623e-05 -5.57615e-05 0.000106953)
(-4.24188e-05 -4.4239e-05 6.91345e-05)
(-4.22516e-05 -5.13073e-05 5.80019e-05)
(-7.37925e-05 -5.47133e-05 5.07614e-05)
(-4.5157e-05 -3.33998e-05 9.38001e-05)
(-2.81875e-05 -1.47758e-05 8.48138e-05)
(-2.83073e-05 -2.49906e-05 6.9417e-05)
(0.000295069 1.58572e-05 0.000514382)
(0.000336157 4.36327e-05 0.000609718)
(0.000294273 -1.05241e-05 0.000522115)
(0.00029611 2.02219e-05 0.000520591)
(0.000478093 0.00013662 0.00049875)
(0.00053065 0.000146842 0.000612303)
(0.000385789 0.000135841 0.000513932)
(0.000427534 0.000129279 0.000599487)
(0.000349713 0.000123162 0.000540413)
(0.000341985 0.00010798 0.000570817)
(0.00048439 0.000192732 0.000640855)
(0.00040709 0.000166167 0.000472353)
(0.00047873 0.000179487 0.000605405)
(0.00030608 0.000117801 0.000499706)
(0.000413215 0.000151881 0.000628751)
(0.000536484 0.000175457 0.000481228)
(0.000441466 0.000167319 0.000535159)
(0.000449509 0.000169608 0.000549488)
(0.000472849 0.000153675 0.000661547)
(0.000510608 0.000203324 0.000604288)
(0.000554388 0.000221041 0.000575955)
(0.000507058 0.000208785 0.000524927)
(0.000501823 0.000175784 0.000637348)
(0.000491305 0.000177744 0.000655)
(0.000548931 9.78251e-05 0.000598415)
(0.000688994 0.000101623 0.000632575)
(0.000534335 0.000124654 0.000605057)
(0.000399623 0.00012398 0.000444775)
(0.000503656 0.000119037 0.000559871)
(0.000527927 8.81942e-05 0.000487114)
(0.000389699 6.52004e-05 0.000345447)
(0.000415182 0.000122863 0.000407261)
(0.000472449 0.000104972 0.000407089)
(0.000446232 0.000109545 0.000377211)
(0.000642832 -5.21439e-05 0.00055144)
(0.000665339 -8.11012e-05 0.000535891)
(0.000699637 -0.000215462 0.00047941)
(0.000514704 -9.28067e-05 0.000414234)
(0.000614055 -0.000179283 0.000335097)
(0.000480441 -2.57198e-05 0.000368549)
(0.000656839 -0.000197545 0.00033809)
(0.000409751 -4.61973e-05 0.000273708)
(0.000545535 -0.000149805 0.000231901)
(0.000705313 -0.000323403 0.000222536)
(0.000402265 5.77249e-05 0.000362819)
(0.000406936 9.07047e-05 0.00036046)
(0.000429407 7.38596e-06 0.000266146)
(0.000420021 5.61601e-05 0.000271189)
(0.000511782 0.000185831 0.000437402)
(0.000504476 0.000179603 0.000565672)
(0.000525193 0.000184171 0.000517895)
(0.000544205 0.000157293 0.00040408)
(0.000608393 0.000202611 0.000438151)
(0.000580785 0.000230174 0.000570212)
(0.00048753 0.000175961 0.000564354)
(0.000531273 0.000180989 0.000602469)
(0.000550321 0.000210588 0.000392496)
(0.000523964 0.000189826 0.000553333)
(0.000525741 0.000195413 0.000567907)
(0.000615257 0.000231556 0.000674858)
(0.00061514 0.000230866 0.000526042)
(0.00047008 0.000130607 0.000352406)
(0.000663566 0.000206735 0.000389778)
(0.000509612 0.000106227 0.000328543)
(0.000667013 0.000163178 0.00032438)
(0.000592368 0.000214211 0.000397324)
(0.000595677 0.000192327 0.000472443)
(0.000796432 0.000313887 0.000495499)
(0.000628102 0.000217168 0.000352856)
(0.000598384 0.000181108 0.000373861)
(0.000846888 0.000310954 0.000402761)
(0.000620616 0.000283984 0.000459036)
(0.000660498 0.000239807 0.000591539)
(0.000610299 0.000210435 0.000632373)
(0.000725948 0.000269054 0.000561902)
(0.000740408 0.000277784 0.000531424)
(0.000380215 0.000139356 0.000529609)
(0.00038584 0.000140395 0.000539585)
(0.000262557 6.72679e-05 0.000506251)
(0.000390763 0.000138495 0.000592671)
(0.000462037 0.00012127 0.000714169)
(0.000431323 0.000116048 0.000668696)
(0.000391585 0.000130112 0.000541157)
(0.00041848 0.000143686 0.000575592)
(0.000407887 0.000139539 0.000630826)
(0.000373654 4.49752e-05 0.000687503)
(0.000323402 1.99413e-05 0.000628247)
(0.000386514 9.04966e-05 0.000674659)
(0.000352984 7.74855e-05 0.0006206)
(0.00031513 1.49885e-05 0.0005374)
(0.000432732 0.000148246 0.000581465)
(0.000463219 0.000117384 0.000672502)
(0.000402229 9.68501e-05 0.000630034)
(0.000391292 -3.4131e-05 0.000664466)
(0.000494358 0.000129953 0.000774589)
(0.000373021 4.15929e-05 0.000675756)
(0.000482264 0.000183219 0.000574982)
(0.00053752 0.000200655 0.000631917)
(0.000482607 0.000138588 0.000708273)
(0.000440248 0.000155078 0.000598726)
(0.000516999 0.000190906 0.000616912)
(0.000524742 0.000108866 0.000762596)
(0.000521729 0.000120492 0.000823684)
(0.00041358 1.44775e-05 0.000729863)
(0.000374271 1.42527e-05 0.000633418)
(0.000405535 3.97164e-05 0.000681548)
(0.000467881 0.000100826 0.000716507)
(0.000392423 4.239e-05 0.00063531)
(0.000515238 0.00019246 0.00064359)
(0.000526076 7.92066e-05 0.000799537)
(0.000597194 0.000163104 0.000880526)
(0.00027615 -7.86179e-06 0.000488463)
(0.000291216 3.15291e-05 0.000512729)
(0.000348954 0.000114346 0.000550937)
(0.000365357 6.68238e-05 0.000619433)
(0.000337468 7.34506e-06 0.000561741)
(0.000436733 6.91403e-05 0.000703305)
(0.00032689 -3.3574e-05 0.00055389)
(0.000333597 8.82504e-06 0.000561537)
(0.000420573 0.000119855 0.000663384)
(0.000339944 3.22172e-05 0.000575842)
(0.000290283 2.19714e-05 0.000485459)
(0.00035195 -1.08289e-05 0.000577561)
(0.000298897 2.7604e-05 0.000498165)
(0.00033945 3.00638e-05 0.000556945)
(0.000409962 1.81284e-05 0.000668213)
(0.000315103 7.43482e-05 0.000538775)
(0.000310217 3.98195e-05 0.000516022)
(0.000395788 -7.17835e-05 0.000601671)
(0.000478516 0.000100806 0.000763792)
(0.000411637 -5.31695e-05 0.000706334)
(0.000521399 4.06926e-05 0.000855476)
(0.000397316 -1.83466e-05 0.000674282)
(0.00041765 -6.38376e-06 0.000706219)
(0.000533595 0.00013269 0.000785115)
(0.000422067 2.60068e-05 0.000677853)
(0.000481564 4.60128e-06 0.00077177)
(0.00051111 2.35281e-05 0.000835596)
(0.000509033 3.15721e-06 0.000811824)
(0.000413139 1.50502e-05 0.0006592)
(0.000464233 1.73747e-05 0.000736068)
(0.000410272 6.79456e-06 0.000646903)
(0.000464547 3.04034e-05 0.000730764)
(0.000567182 0.000174462 0.000733443)
(0.00057437 0.000207926 0.00066142)
(-2.11034e-05 -4.9308e-05 0.000161006)
(0.000574019 0.000140505 0.000815931)
(0.000503249 0.000130319 0.000709278)
(0.000671254 0.000260036 0.000686054)
(0.000593816 0.000232418 0.00061776)
(0.000640882 0.000228454 0.000706883)
(-2.53817e-05 -4.897e-05 0.00016046)
(0.000574088 0.000180098 0.000759409)
(0.000565866 0.000200512 0.00067743)
(0.000622301 0.000226903 0.000719751)
(0.000572779 0.000161276 0.000811069)
(0.000629055 0.000157109 0.000944626)
(-2.30014e-05 -4.87357e-05 0.000157646)
(0.000467776 4.5525e-05 0.000767414)
(0.000432128 3.4133e-05 0.000728282)
(0.000461674 5.81096e-05 0.000736365)
(0.000535273 3.40856e-05 0.000826395)
(0.000459734 8.4026e-05 0.00072139)
(-2.54834e-05 -3.81988e-05 0.000160678)
(0.000578427 0.000220244 0.000694486)
(0.000607473 0.000105891 0.000875866)
(0.000687499 0.000200353 0.000952262)
(0.000674249 0.000232785 0.00077701)
(0.000772597 0.000289114 0.000648491)
(0.000854316 0.000342043 0.000614638)
(0.000652142 0.000192261 0.000843706)
(0.000622593 0.000189269 0.000752943)
(0.000663887 0.000289382 0.000601843)
(0.000702061 0.000266796 0.00066033)
(0.000679556 0.000231705 0.000759688)
(0.000716259 0.000252486 0.000805982)
(0.000774629 0.000310516 0.000788361)
(0.000680758 0.00022061 0.000850297)
(0.000687051 0.000163376 0.000954751)
(0.000564199 0.000132866 0.000798465)
(0.00063042 0.000127894 0.000988672)
(0.000507646 8.12024e-05 0.000775011)
(0.000597557 7.43267e-05 0.000910666)
(0.000739295 0.000249256 0.000931639)
(0.000618454 0.000198951 0.000786054)
(0.000666759 0.000180961 0.000942883)
(0.00054693 8.96013e-05 0.00088277)
(0.000561849 0.000139703 0.000810372)
(0.000748736 0.000131364 0.00105257)
(0.000647626 0.000120957 0.00101604)
(0.000595497 4.01991e-05 0.000960133)
(0.000583336 1.23129e-05 0.000925282)
(0.000476656 6.35592e-06 0.000799232)
(0.000463597 3.03303e-05 0.000751626)
(0.000610593 0.000100491 0.000891424)
(0.000625246 0.000112569 0.000978049)
(0.000582432 7.18894e-06 0.000916199)
(0.00059973 2.99033e-05 0.00094179)
(0.000600696 -3.66793e-05 0.000931383)
(0.000574867 3.97093e-05 0.000879012)
(0.00067916 0.000124667 0.000990709)
(-3.14856e-05 -4.33201e-05 0.000169119)
(0.000507466 -1.15904e-05 0.000829892)
(0.000459671 3.31693e-05 0.000733592)
(0.000667347 0.000152914 0.000982989)
(0.000699996 0.000199858 0.00104533)
(0.000578632 1.38394e-06 0.000965045)
(0.000732189 7.21858e-05 0.00115343)
(0.000535971 4.33861e-05 0.000839623)
(0.000658648 3.06194e-05 0.0010108)
(0.000527201 7.73871e-05 0.000834358)
(0.000505682 2.52863e-06 0.000772863)
(0.000638002 -7.77347e-05 0.000947118)
(0.000715878 4.74767e-05 0.00113168)
(0.000711815 3.22109e-05 0.00111796)
(0.000293723 -4.19652e-05 0.000422821)
(0.000219481 1.8655e-05 0.000340484)
(0.00023096 1.77407e-05 0.000340165)
(0.000217649 9.40068e-06 0.000333965)
(0.000162454 3.10307e-05 0.000290192)
(0.00019526 3.52862e-05 0.000322945)
(0.000239717 1.87637e-05 0.000334245)
(0.000187945 4.66068e-05 0.000319001)
(0.000300449 3.3709e-05 0.000529848)
(0.000290985 4.67808e-05 0.000488149)
(-2.3207e-05 -4.19368e-05 0.000154156)
(-2.68918e-05 -4.39733e-05 0.000161089)
(-2.48749e-05 -4.06158e-05 0.000149166)
(-2.63641e-05 -3.69175e-05 0.000150038)
(0.000304796 3.97571e-05 0.000490091)
(0.000267256 7.13734e-05 0.000440653)
(0.000300446 2.89365e-05 0.000425813)
(0.000252082 4.81809e-05 0.000376928)
(0.000299018 1.92156e-05 0.000418624)
(0.000277557 4.38621e-05 0.000398032)
(-2.98288e-05 -3.63175e-05 0.000155488)
(0.000294674 2.05775e-05 0.000403428)
(-3.51749e-05 -2.89618e-05 0.000165606)
(-3.02379e-05 -3.46773e-05 0.000156534)
(0.00018967 5.18115e-05 0.000244692)
(0.000168119 4.9159e-05 0.00022422)
(0.000169613 4.11177e-05 0.000231249)
(-3.35906e-05 -3.45146e-05 0.000154555)
(-2.66542e-05 -3.84911e-05 0.000165455)
(-2.60364e-05 -4.20306e-05 0.000161946)
(-3.24643e-05 -3.38573e-05 0.000175882)
(-3.40297e-05 -4.2475e-05 0.000183592)
(-2.9846e-05 -3.0393e-05 0.000167466)
(-2.86852e-05 -2.62897e-05 0.000160175)
(-3.48107e-05 -3.45879e-05 0.00015973)
(0.000110344 4.75175e-05 0.000191714)
(0.000152587 5.20627e-05 0.000214929)
(0.000123632 4.3988e-05 0.000185902)
(8.92547e-05 3.97949e-05 0.000193965)
(0.000125559 4.74905e-05 0.000200982)
(0.00017188 4.47958e-05 0.000211388)
(0.000185961 5.1825e-05 0.000244148)
(0.000226831 4.14408e-05 0.000246779)
(0.00020954 4.64382e-05 0.000230013)
(0.00018773 5.53953e-05 0.000244883)
(0.000167174 5.51766e-05 0.000206525)
(0.000192466 4.98142e-05 0.000216615)
(0.000217889 3.57393e-05 0.000276177)
(0.000202596 3.9657e-05 0.000280277)
(0.000251324 2.56765e-05 0.000318631)
(0.000199646 3.63283e-05 0.000294948)
(0.000222363 2.14804e-05 0.000296917)
(0.000189032 3.6828e-05 0.000285032)
(0.00025933 5.73677e-05 0.000340854)
(0.000267663 3.28049e-05 0.000303412)
(0.000235372 3.91204e-05 0.000283958)
(0.000210487 3.82158e-05 0.000272918)
(0.000265858 2.8294e-05 0.00036483)
(0.000256766 2.97597e-05 0.000316311)
(0.000283685 4.70442e-05 0.00038721)
(0.000235486 6.16614e-05 0.000299853)
(0.000282495 3.19164e-05 0.000331668)
(0.000263192 2.94051e-05 0.000281045)
(0.00028771 3.49718e-05 0.000323685)
(0.000267329 4.81694e-05 0.000321457)
(0.000273718 5.00419e-05 0.000372838)
(0.000308756 2.40427e-05 0.000401837)
(0.000316217 7.65413e-06 0.000381189)
(0.000328054 4.06757e-05 0.000434678)
(0.000352974 4.37124e-05 0.000437923)
(0.000342255 1.44026e-05 0.00037562)
(0.000317381 1.22622e-05 0.000303866)
(0.000333412 3.14247e-05 0.000366208)
(0.000259831 3.86904e-05 0.000271314)
(0.000234602 3.24803e-05 0.000228721)
(0.000271776 4.33643e-05 0.000270933)
(6.20671e-05 2.95823e-05 0.000159487)
(9.60853e-05 4.088e-05 0.000169588)
(4.11638e-05 1.79683e-05 0.000125446)
(9.4159e-05 3.57873e-05 0.000138234)
(0.000138742 4.41908e-05 0.000176282)
(0.000196686 4.2822e-05 0.000199614)
(0.000147217 4.88051e-05 0.00017106)
(-4.5779e-07 4.77548e-07 7.28561e-05)
(9.35501e-05 3.15712e-05 8.58739e-05)
(-4.87837e-05 -3.19131e-05 3.14691e-05)
(-2.78744e-05 -1.30243e-05 3.58268e-05)
(5.27208e-05 1.98926e-05 3.87785e-05)
(0.000100637 3.51585e-05 0.000103955)
(0.000103578 2.50719e-05 6.12428e-05)
(0.000152481 4.53365e-05 0.000126615)
(0.000203263 3.65333e-05 9.80427e-05)
(8.86622e-05 2.92241e-05 4.65578e-05)
(0.000112726 3.22574e-05 6.73023e-05)
(0.000198434 4.64623e-05 8.68497e-05)
(0.000341994 3.65552e-05 0.000349651)
(0.000410012 6.04722e-06 0.000437348)
(0.000359738 1.8067e-05 0.000383618)
(0.000410349 1.25922e-05 0.000425153)
(0.000246668 4.74263e-05 0.000242582)
(0.000323206 2.13331e-05 0.000303116)
(0.000284771 3.31109e-05 0.000262955)
(0.00030712 3.33125e-05 0.000293592)
(0.000249023 4.7915e-05 0.00021818)
(0.000286633 4.30771e-05 0.000280298)
(0.000369069 1.29527e-06 0.000278511)
(0.000436468 1.46141e-05 0.000368906)
(0.000444275 -1.15469e-05 0.000413735)
(0.00041242 2.9782e-06 0.000345066)
(0.00036689 3.08062e-05 0.000371543)
(0.000256197 3.66755e-05 0.000131868)
(0.000285545 3.37734e-05 0.000174638)
(0.0003437 1.41909e-05 0.000239623)
(0.000313307 2.70578e-05 0.000170204)
(0.000312108 3.00559e-05 0.000204064)
(0.000243245 4.5768e-05 0.000134889)
(0.000296373 3.31179e-05 0.000170863)
(0.000409576 2.2841e-05 0.000307707)
(0.000432814 -6.11377e-06 0.000329611)
(0.000499159 -2.41265e-05 0.000327249)
(0.000425596 4.62058e-06 0.000273809)
(0.000391768 1.23806e-05 0.000240865)
(0.000420245 2.362e-06 0.000245176)
(0.000272587 4.65617e-05 0.00046361)
(0.000283208 2.4746e-05 0.000465389)
(0.000318966 -2.48193e-05 0.00049406)
(0.000308575 1.22888e-05 0.000482225)
(0.000257643 6.04222e-05 0.000433442)
(0.000288333 4.52132e-06 0.000433972)
(0.000411345 -2.86854e-05 0.000609606)
(0.000282963 2.86836e-05 0.000464009)
(0.0003043 1.2042e-05 0.000467258)
(0.00034602 2.17022e-05 0.000533064)
(0.000330294 6.49582e-06 0.000472389)
(0.000296275 2.24393e-05 0.000431175)
(0.000323833 2.32764e-05 0.000473667)
(0.000430066 -8.2003e-06 0.00061383)
(0.00045927 1.68602e-05 0.000754189)
(0.00033931 3.94642e-05 0.000538146)
(0.000381004 4.19011e-05 0.000614211)
(0.00038555 5.52836e-05 0.000645715)
(0.000405215 1.32489e-06 0.000618315)
(0.0005349 -7.18165e-05 0.000752873)
(0.000483429 -8.50756e-05 0.000655469)
(0.000388006 7.58483e-05 0.000645102)
(0.000394502 1.01129e-05 0.000599584)
(0.000339664 2.97026e-05 0.000502673)
(0.000378577 2.40558e-05 0.00055488)
(0.000360133 1.0318e-05 0.000494626)
(0.000307138 3.00962e-05 0.000432178)
(0.000346602 2.46332e-05 0.000482042)
(-3.63547e-05 -3.00269e-05 0.000161585)
(0.000436881 -3.3485e-05 0.000580102)
(0.000381769 1.6922e-05 0.000503884)
(0.000429588 3.2033e-05 0.00058003)
(0.000375315 1.80063e-05 0.000565732)
(0.00042108 -2.69367e-06 0.000576059)
(0.000485322 -1.41979e-05 0.000653178)
(0.0003968 -4.59163e-06 0.000500444)
(0.000360621 6.92585e-06 0.000422486)
(0.000368244 3.91688e-05 0.000500283)
(0.000613113 -3.43197e-05 0.000935446)
(0.000412869 3.4419e-05 0.000645812)
(-3.64929e-05 -2.5835e-05 0.000149297)
(0.000434212 1.36058e-05 0.000642001)
(0.000495225 1.86834e-05 0.000741543)
(0.000587807 -3.36221e-05 0.000851951)
(0.000563069 -5.86297e-05 0.000759402)
(0.000390906 1.94579e-05 0.000558777)
(-4.16305e-05 -2.12668e-05 0.000161101)
(0.000460085 -7.65397e-05 0.000524682)
(0.000493957 6.15365e-06 0.000666601)
(0.000561564 -1.67495e-05 0.000820973)
(0.000470747 6.00338e-06 0.000680547)
(0.000530555 2.1982e-05 0.000763545)
(0.000576186 -1.31687e-05 0.000781856)
(0.000481618 4.94139e-05 0.000680491)
(0.000643164 -6.81485e-05 0.00083101)
(0.000528182 -2.34487e-05 0.000684976)
(0.00057694 1.09516e-06 0.000790239)
(0.000466975 3.91313e-05 0.000735842)
(0.000469251 -1.23163e-05 0.000694791)
(0.000572046 -4.09193e-05 0.000829584)
(0.000636639 -1.76572e-05 0.000962668)
(0.000605962 -8.47869e-05 0.000874688)
(0.00054156 9.70443e-05 0.00085762)
(0.000663188 -6.05841e-05 0.0010053)
(0.000611798 0.00012305 0.000979143)
(0.000569242 4.32787e-05 0.000891845)
(0.000551528 2.07618e-05 0.000833483)
(0.000655997 -4.38958e-05 0.000949585)
(0.000518267 1.40683e-06 0.00078799)
(0.000548468 -1.42544e-05 0.000777434)
(0.000636491 -4.69321e-05 0.000875518)
(0.000751134 -6.96846e-05 0.00100405)
(0.000547093 -1.67682e-05 0.000787469)
(0.000600682 -4.5051e-05 0.000767525)
(0.000661307 2.56924e-05 0.000918961)
(0.000410161 1.86152e-05 0.000492704)
(0.000387629 -2.61174e-05 0.000465418)
(0.00044396 -3.41681e-05 0.000483542)
(0.000450433 2.6338e-05 0.00058381)
(0.000529352 -3.31245e-06 0.000666974)
(0.000468765 3.22985e-05 0.000576047)
(0.000461891 -1.97907e-05 0.000501086)
(0.000448004 -4.09149e-06 0.000434101)
(0.000461746 8.76822e-06 0.000481804)
(0.000552276 -2.50012e-05 0.000600155)
(0.000509586 -3.02035e-05 0.000511141)
(0.00054712 -1.95403e-05 0.000578194)
(0.000592682 -4.77591e-05 0.000698218)
(-4.43568e-05 -1.70709e-05 0.000159328)
(0.000505935 -1.29842e-05 0.000610353)
(0.000553626 -1.34193e-05 0.00067874)
(0.00069422 -9.75513e-05 0.000843107)
(0.000593243 -3.54541e-05 0.000698071)
(0.000631379 -6.8634e-06 0.000803515)
(-4.76575e-05 -1.23666e-05 0.000160638)
(0.000637922 -7.23396e-05 0.000697092)
(0.000606245 -9.74875e-05 0.000537523)
(-3.61658e-05 -3.4462e-05 0.000184095)
(0.000606511 -7.19893e-06 0.000709705)
(0.000501976 -1.51448e-05 0.000480413)
(-4.02382e-05 -2.71376e-05 0.000187364)
(0.00049336 -2.66777e-05 0.000415248)
(0.000504943 1.61543e-07 0.000475456)
(-3.4433e-05 -3.42647e-05 0.000169259)
(0.000582975 -1.24088e-05 0.000451091)
(-3.75786e-05 -1.67008e-05 0.000170545)
(-4.08998e-05 -2.86999e-05 0.000184113)
(0.00055885 -6.61794e-05 0.000487697)
(0.000579752 -7.69855e-05 0.000432422)
(-4.20823e-05 -2.72938e-05 0.000183865)
(0.000580343 -7.13814e-07 0.000601521)
(0.000609317 -0.000445701 0.000190633)
(-4.5632e-05 -1.98261e-05 0.000179122)
(0.000644084 -0.00047513 0.000102148)
(0.000525934 -0.000410042 0.000104859)
(-4.46321e-05 -2.0469e-05 0.000183195)
(0.000467427 -0.000398389 0.000165322)
(0.00051943 -0.000436025 0.000130958)
(-4.85412e-05 -1.30538e-05 0.000191936)
(0.000398087 -0.000362892 0.000102614)
(0.000481768 -0.000375738 0.000216944)
(-3.73186e-05 -1.96428e-05 0.000165088)
(-3.37968e-05 -1.73967e-05 0.000152211)
(0.000512561 -0.000413401 9.69626e-05)
(-3.94454e-05 -2.38206e-05 0.000154667)
(-4.13272e-05 -1.82222e-05 0.00016908)
(0.000343885 -0.000325205 0.000154118)
(-3.97558e-05 -1.5831e-05 0.000153528)
(-4.37099e-05 -1.32102e-05 0.00016745)
(0.000401729 -0.000378665 0.000137542)
(-4.22823e-05 -1.25922e-05 0.000151684)
(0.000304322 -0.000296744 0.00012153)
(0.000210718 -0.000230917 0.000107685)
(0.000305062 -0.000305659 0.000152266)
(0.000231947 -0.000225648 0.000143057)
(0.000195868 -0.000208718 0.000112534)
(0.000262427 -0.000243232 0.000136959)
(0.000201485 -0.000208363 0.000115275)
(0.000341765 -0.00028406 0.000204915)
(0.000372223 -0.0003227 0.000134406)
(0.000411455 -0.00041157 5.93825e-05)
(0.000553671 -0.000469702 7.62442e-05)
(0.000398651 -0.000342495 0.000114159)
(0.000242338 -0.000256083 7.42396e-05)
(0.000394444 -0.000373756 0.000107358)
(0.000290247 -0.000260084 0.00013992)
(0.000270175 -0.000272819 0.00014996)
(0.000295264 -0.000249296 0.00017534)
(0.000345152 -0.000296589 0.000113296)
(0.000155232 -0.000196163 5.93447e-05)