/*--------------------------------*- C++ -*----------------------------------*\
  =========                 |
  \\      /  F ield         | OpenFOAM: The Open Source CFD Toolbox
   \\    /   O peration     | Website:  https://openfoam.org
    \\  /    A nd           | Version:  7
     \\/     M anipulation  |
\*---------------------------------------------------------------------------*/
FoamFile
{
    version     2.0;
    format      ascii;
    class       volScalarField;
    location    "3";
    object      p;
}
// * * * * * * * * * * * * * * * * * * * * * * * * * * * * * * * * * * * * * //

dimensions      [0 2 -2 0 0 0 0];

internalField   nonuniform List<scalar> 
382612
(
0.00221681
0.00208981
0.00209927
0.00211152
0.00195375
0.00241393
0.00222966
0.00204709
0.00189639
0.0018205
0.00191395
0.00190107
0.001912
0.00202536
0.00201928
0.00221195
0.00208444
0.00222689
0.00213656
0.00217309
0.00220693
0.00225181
0.00229708
0.00239678
0.00236717
0.00233229
0.00230293
0.00292247
0.00298589
0.00303796
0.00308109
0.00286004
0.00284647
0.0028304
0.0028059
0.00267996
0.00221888
0.00221141
0.00231095
0.00236304
0.00241085
0.00245481
0.00243345
0.00240711
0.00237391
0.00233622
0.00224949
0.00227023
0.00230108
0.00232747
0.00244371
0.00240776
0.0023684
0.00232775
0.00225482
0.00219004
0.0021825
0.00217064
0.00226757
0.00222725
0.00232457
0.00234297
0.00238116
0.00279979
0.00234655
0.002127
0.00254911
0.00272881
0.00283564
0.0030422
0.00307182
0.00307898
0.00308368
0.00339572
0.00338142
0.00336203
0.00332648
0.00317926
0.00286593
0.00302676
0.00308879
0.00312864
0.00315645
0.00355891
0.00356391
0.00356629
0.00352534
0.00325613
0.00246926
0.00268239
0.00273673
0.00276384
0.00278191
0.00296083
0.00297398
0.0029881
0.00296375
0.00276319
0.00224369
0.00222584
0.00230106
0.0023349
0.0023712
0.00241213
0.00230629
0.00229041
0.00227316
0.00226477
0.00209476
0.00213302
0.00216766
0.00219499
0.00242523
0.00238169
0.00233699
0.00229483
0.00221244
0.00196186
0.00198498
0.00202737
0.00205842
0.00208099
0.002246
0.00219836
0.0021518
0.00210748
0.00200067
0.00179588
0.00195013
0.00218919
0.00223411
0.00225551
0.00226677
0.0024887
0.00249358
0.00250017
0.00249653
0.00254719
0.00250867
0.0024501
0.00243134
0.00241379
0.00240052
0.00197563
0.00195852
0.00193773
0.00191347
0.00209068
0.00212831
0.00215734
0.00218058
0.00219952
0.00217449
0.00214906
0.0021289
0.00215317
0.00207891
0.00202297
0.00202569
0.00204034
0.00205403
0.00196454
0.00209059
0.00210532
0.00182963
0.00187086
0.00189949
0.00223072
0.00245015
0.00175252
0.00180681
0.0021075
0.00181314
0.00186592
0.00184603
0.00183387
0.00184189
0.00185385
0.0018598
0.00251073
0.00252395
0.00254368
0.00255471
0.00246999
0.00182717
0.00182609
0.00182746
0.00183561
0.0018435
0.00235067
0.00237141
0.0024025
0.00242984
0.00241297
0.00205132
0.00223332
0.00227453
0.00228038
0.00227977
0.00228136
0.00198882
0.00198985
0.00199369
0.00200603
0.0015302
0.00154433
0.00155982
0.00156738
0.00208363
0.00207433
0.00206247
0.00205285
0.00207855
0.0015279
0.00151025
0.00204472
0.0019472
0.0015241
0.00176877
0.00200188
0.00168135
0.00197809
0.00194761
0.00170925
0.0014633
0.00182192
0.00190438
0.00172787
0.00155801
0.00180635
0.00191818
0.0019147
0.00206687
0.00201017
0.00186906
0.0017819
0.00204859
0.00194862
0.00202179
0.00211802
0.00212232
0.00207592
0.0022044
0.0022788
0.00207069
0.00200755
0.00206894
0.00208659
0.00211148
0.00213918
0.00241277
0.0024038
0.0023867
0.00233458
0.002704
0.00268302
0.00266476
0.0026468
0.0032479
0.00323291
0.00321728
0.00317879
0.002986
0.00277504
0.00267817
0.00272572
0.00275278
0.00276317
0.00277408
0.00236999
0.00236891
0.00235814
0.00233753
0.00235388
0.00295632
0.00293708
0.00295167
0.00296769
0.00298019
0.00285602
0.00283789
0.00280981
0.00278649
0.00279825
0.00316057
0.00313677
0.00314025
0.00315787
0.00317253
0.00346104
0.00345916
0.00345497
0.00343653
0.00332699
0.00321724
0.00338993
0.00343472
0.00345577
0.00346834
0.00400442
0.00400815
0.00401171
0.00397382
0.00368714
0.0027675
0.00284513
0.00287032
0.00289904
0.00292352
0.0029583
0.002945
0.00292666
0.00288863
0.00271167
0.00240569
0.00253883
0.00259002
0.00262681
0.00265186
0.00307666
0.003094
0.00311917
0.00311367
0.00292211
0.00190167
0.00196092
0.00198123
0.00201035
0.00203694
0.00233413
0.00239822
0.00242305
0.00244152
0.00245411
0.00217127
0.00214591
0.00211324
0.00208557
0.00201611
0.00265046
0.00275223
0.0027445
0.00271407
0.00269027
0.00180385
0.00178642
0.0017641
0.0017495
0.00172872
0.00242947
0.00242508
0.0023956
0.00236215
0.00233911
0.00166064
0.00165711
0.00165251
0.00166218
0.00173206
0.0017408
0.00170589
0.00170755
0.0017223
0.00173498
0.00213754
0.00215975
0.00219071
0.00222558
0.00228217
0.00173351
0.00164103
0.00163084
0.00163754
0.00164251
0.00216162
0.00217708
0.00219949
0.00222101
0.00221404
0.00195966
0.00207495
0.00209214
0.00209741
0.00209651
0.00209568
0.00190975
0.00190942
0.00190992
0.00191727
0.00165958
0.00166102
0.00166622
0.00166842
0.00199352
0.00199264
0.0019902
0.00198742
0.00199219
0.00167064
0.00188179
0.00183112
0.00182429
0.00182708
0.00182839
0.0017176
0.00181495
0.0020585
0.00200222
0.00197857
0.00196431
0.0019544
0.00186271
0.0018656
0.00186784
0.00186586
0.00203792
0.00203552
0.0020311
0.00202792
0.0020383
0.00203992
0.00204217
0.0020427
0.00189495
0.00190015
0.00190272
0.00190232
0.00202577
0.0020341
0.00204399
0.00205433
0.00208735
0.00189652
0.00204432
0.00207371
0.00199065
0.00166399
0.00191712
0.00193484
0.00168034
0.00164528
0.00193524
0.00193395
0.00159327
0.00210303
0.00214294
0.00206591
0.00197626
0.00185337
0.0020362
0.00174488
0.00176055
0.00177436
0.00191559
0.00203218
0.0019729
0.00195791
0.00195407
0.0019528
0.00192138
0.00191797
0.00191276
0.00191352
0.00194505
0.00217176
0.00215739
0.00214276
0.00213669
0.00213618
0.00214003
0.00214353
0.00215108
0.00216793
0.00221377
0.00206287
0.00207063
0.00206774
0.00206626
0.0020629
0.00206087
0.0020427
0.00204065
0.0020381
0.00203854
0.00186703
0.00187125
0.00187333
0.00187313
0.00198562
0.0019878
0.00199025
0.00199243
0.00200397
0.00185258
0.00200166
0.00197367
0.00196842
0.00196473
0.00196104
0.00191632
0.00195197
0.00193965
0.00191493
0.00191653
0.00192127
0.00192361
0.00204625
0.00204515
0.0020425
0.00204123
0.00205824
0.00217916
0.00218348
0.00217638
0.0021716
0.00217003
0.00209729
0.00209699
0.00209794
0.00210703
0.00214718
0.00216772
0.00214463
0.00213772
0.00213322
0.00213008
0.00202032
0.00201845
0.00201586
0.00201486
0.00206369
0.00206029
0.00205502
0.00205134
0.00205329
0.0020562
0.00205984
0.00206246
0.00203706
0.00203714
0.00203823
0.00203808
0.00215635
0.00215159
0.00214481
0.00214107
0.00216268
0.00205489
0.00206929
0.00209449
0.00212381
0.00194471
0.00201932
0.00205141
0.00194231
0.00174838
0.0019583
0.00200148
0.0018183
0.00217994
0.00213964
0.0020967
0.00211667
0.00202219
0.00206478
0.00209321
0.00204337
0.00212202
0.00204749
0.00202282
0.00199186
0.00198913
0.00199302
0.00199582
0.00210736
0.00210482
0.00210021
0.00209486
0.00209799
0.00219558
0.00219517
0.0021922
0.00219094
0.00219059
0.0021562
0.00215708
0.00215772
0.0021595
0.00217438
0.0022403
0.00223237
0.00223132
0.00223048
0.00222993
0.00223437
0.00222831
0.00221992
0.00221211
0.00221761
0.00212848
0.00210688
0.00210289
0.00209936
0.00209533
0.00219796
0.00219187
0.00218398
0.00217556
0.00217884
0.00210862
0.0020756
0.00207457
0.00207766
0.00207799
0.00207752
0.00207431
0.00207153
0.00206814
0.00207156
0.00209408
0.00209521
0.00209724
0.00209901
0.0020743
0.00207425
0.00207431
0.00207318
0.00207261
0.00210204
0.00211353
0.00209028
0.00210729
0.00212825
0.00198338
0.00203027
0.00209637
0.00207074
0.00213616
0.00210692
0.00204696
0.00204794
0.00190889
0.00197377
0.0020985
0.00213709
0.0020572
0.00205005
0.00205346
0.00202622
0.00208654
0.00211706
0.00212637
0.00206298
0.00198405
0.00198495
0.00199001
0.00199336
0.00199513
0.00213869
0.00213976
0.0021431
0.00215082
0.00215909
0.00220766
0.00220834
0.00220477
0.00220323
0.00220282
0.00215879
0.00215512
0.00214938
0.00214312
0.00214971
0.00224682
0.00226054
0.002264
0.00226477
0.00226516
0.00232637
0.00232568
0.00232597
0.00232505
0.00230615
0.00223636
0.00223517
0.00224091
0.00224782
0.00225241
0.00233844
0.00233807
0.00233709
0.00233238
0.00231705
0.0022788
0.00228644
0.00229119
0.00229448
0.00229638
0.00216888
0.00216622
0.00216203
0.00215488
0.00213869
0.00209681
0.00208535
0.00209517
0.00209856
0.00209786
0.00209591
0.00210808
0.00210579
0.00210247
0.0020992
0.00214949
0.00215244
0.00215735
0.00216359
0.00211542
0.00211314
0.00210855
0.00210001
0.00208213
0.00213741
0.0022162
0.00223789
0.0022456
0.00225269
0.00225873
0.0022763
0.00226891
0.00226206
0.00225612
0.00223305
0.00213378
0.00209141
0.00211535
0.00212248
0.00212769
0.00213381
0.00218433
0.00217317
0.00216072
0.00215213
0.00217114
0.00218524
0.00219639
0.00220422
0.00217729
0.00216611
0.00215467
0.00213822
0.00208557
0.00213908
0.00224035
0.00214497
0.00207706
0.00213112
0.00226976
0.00216911
0.00206949
0.00209955
0.00219802
0.0021269
0.00212009
0.00216232
0.0020802
0.002056
0.00217071
0.00233408
0.00230744
0.00216847
0.00211718
0.00223164
0.00193719
0.00199685
0.00194919
0.00181555
0.00161025
0.00182397
0.00185849
0.00168778
0.0017263
0.00190241
0.00195375
0.00179866
0.00178686
0.00197172
0.00193667
0.00169144
0.0019296
0.00190518
0.00199853
0.00198422
0.00210171
0.00204418
0.00202754
0.00202262
0.0020209
0.00200004
0.00200244
0.00200882
0.00202309
0.00203752
0.00210612
0.00209623
0.00208535
0.00207976
0.0020773
0.00193051
0.00192999
0.0019281
0.00192366
0.00191959
0.00195634
0.00192714
0.00191541
0.00191145
0.00191029
0.00197518
0.00197588
0.00197839
0.00198474
0.00199434
0.00203422
0.00202666
0.00202402
0.00202491
0.00202586
0.00207447
0.00207291
0.0020686
0.00206129
0.00205657
0.00212213
0.00213539
0.00214637
0.00215063
0.00215203
0.00225746
0.00225572
0.00225423
0.00225313
0.00224598
0.00230668
0.00231862
0.00232199
0.00232405
0.0023253
0.0023966
0.0023937
0.00238956
0.00238314
0.00236592
0.00241914
0.00244404
0.00245383
0.00245857
0.00246124
0.00235541
0.00234875
0.00233939
0.00233061
0.0023227
0.00235071
0.00238022
0.00239101
0.0023952
0.00239709
0.00233755
0.00233658
0.00233334
0.00232559
0.00230184
0.00239977
0.00245103
0.00246584
0.00246795
0.00246695
0.00222775
0.00221573
0.00220181
0.00219144
0.00219686
0.00221882
0.00223494
0.00224947
0.00224438
0.00222916
0.00221276
0.00219276
0.0021438
0.00221666
0.00223921
0.00225084
0.00226514
0.0022773
0.00237207
0.00236864
0.00236244
0.00235327
0.0023326
0.0023208
0.00237946
0.00239714
0.00240796
0.00241685
0.00227106
0.00225486
0.00223736
0.00222618
0.00216468
0.00218334
0.00220225
0.00222133
0.00220533
0.00218906
0.00217213
0.00215249
0.00219301
0.00220427
0.0022179
0.00223011
0.0024105
0.00241056
0.00240772
0.00239197
0.00233357
0.00216827
0.00210589
0.00212914
0.00219058
0.00225234
0.00214287
0.00216066
0.0022933
0.00224143
0.00214862
0.0021387
0.00224434
0.00227037
0.00213703
0.00220968
0.00233464
0.00231484
0.00214488
0.00218987
0.00233498
0.00206959
0.00204318
0.00204179
0.0020593
0.0016312
0.00185541
0.00186687
0.00161934
0.00173859
0.00195175
0.00197869
0.0019003
0.00217667
0.00226466
0.00218969
0.0021486
0.00207315
0.00198814
0.00188421
0.00176527
0.0016138
0.00144814
0.0013713
0.00138289
0.00138971
0.00139004
0.00138831
0.00160154
0.00160036
0.0016016
0.00161079
0.00162464
0.00169059
0.00170582
0.00171669
0.00172028
0.00172091
0.00188155
0.00187929
0.00187781
0.00188039
0.001879
0.00191542
0.00195005
0.00195021
0.0019469
0.00194517
0.00192358
0.00192347
0.00192058
0.00191119
0.0018833
0.00206664
0.00207148
0.00207125
0.00207323
0.00207559
0.00216256
0.00216322
0.00216505
0.00216509
0.00213821
0.0021161
0.00214275
0.00215374
0.00215801
0.00215887
0.0022511
0.0022465
0.00224102
0.00223767
0.0022374
0.00227662
0.00230076
0.00231441
0.00232108
0.00232358
0.00248402
0.00248056
0.00247758
0.00247441
0.00244988
0.00252479
0.00254877
0.00255425
0.00255825
0.00256178
0.00251182
0.00250441
0.00249396
0.00248167
0.00245754
0.00248586
0.00252318
0.0025348
0.00253947
0.00254137
0.00238134
0.00237075
0.00235732
0.00234748
0.00234988
0.0024587
0.00248341
0.00249188
0.0024994
0.00250556
0.00250085
0.00249878
0.00249415
0.00248206
0.00244663
0.00251697
0.00252789
0.00253545
0.0025439
0.0025506
0.00243404
0.00243043
0.00242528
0.00241916
0.00240959
0.00227558
0.00229101
0.00230143
0.00231029
0.00231637
0.00228925
0.00228469
0.00227972
0.00227415
0.0022621
0.00215993
0.00208717
0.00209266
0.00210152
0.00211008
0.00211866
0.00217817
0.00216938
0.00215956
0.00215508
0.00220185
0.00220991
0.00222116
0.00223055
0.00219086
0.00217869
0.00216637
0.00215133
0.00212426
0.00219467
0.00219328
0.00213269
0.00210477
0.00216343
0.00216701
0.00208283
0.00214877
0.00228263
0.00232639
0.00214613
0.00206002
0.00205248
0.00214341
0.00206837
0.00208692
0.00219148
0.00199081
0.00200667
0.00203213
0.00205306
0.00210652
0.00206705
0.00208774
0.00218189
0.00201959
0.00202573
0.00211241
0.00219536
0.00203012
0.00222644
0.00234409
0.00241543
0.0023893
0.00226211
0.00207669
0.00187734
0.00166398
0.00146786
0.00126314
0.0010807
0.00102014
0.00103263
0.00103381
0.0010289
0.00102359
0.00119889
0.001198
0.00119935
0.0012062
0.00121332
0.00138701
0.0014072
0.00141534
0.001414
0.00140993
0.00159949
0.00159776
0.00159755
0.00160179
0.00160165
0.0017666
0.00176213
0.00175972
0.00176049
0.00176163
0.00180997
0.00180687
0.00180307
0.00180086
0.00179294
0.00199873
0.00199612
0.00199743
0.00200167
0.00200527
0.00206833
0.00206359
0.00205759
0.00205141
0.00203848
0.00221886
0.00221934
0.00222452
0.00223124
0.0022363
0.00237818
0.00237596
0.00236967
0.00235543
0.0023277
0.00241378
0.00242612
0.00243541
0.00244429
0.00245088
0.00257063
0.0025671
0.00256163
0.00255
0.00251161
0.00254031
0.00256596
0.00257591
0.00258246
0.00258741
0.00257887
0.00257348
0.00256557
0.00255543
0.00253929
0.00248384
0.00250802
0.00252124
0.00253375
0.00254332
0.00265193
0.00264696
0.00264096
0.00263155
0.00259796
0.00255864
0.00259351
0.00255514
0.00245887
0.0024878
0.00252523
0.00253341
0.0025365
0.00253913
0.00250419
0.00250023
0.00249258
0.00247961
0.00245678
0.00254379
0.00256147
0.00256878
0.00257409
0.00257826
0.00260112
0.00259868
0.00259484
0.00258652
0.00256516
0.00251085
0.002531
0.0025377
0.00254194
0.00254475
0.00236892
0.00236284
0.00235549
0.0023517
0.00235883
0.00237149
0.00238298
0.00238628
0.00238805
0.00238931
0.00227134
0.00227102
0.00227089
0.00227087
0.00227469
0.00212675
0.00207075
0.00208064
0.00208749
0.00209319
0.00209931
0.00213287
0.00212845
0.00212279
0.00212116
0.00209979
0.00210427
0.00211046
0.00211517
0.00210358
0.00210258
0.00210086
0.00209487
0.00208242
0.00210562
0.00216437
0.00212361
0.0020838
0.00212984
0.00219581
0.00228165
0.0022713
0.00223802
0.0022495
0.0022552
0.00225651
0.00225677
0.0021464
0.00214501
0.0021426
0.00214259
0.00216376
0.00211677
0.00213494
0.00213535
0.00213074
0.00212621
0.0021011
0.00210395
0.00210752
0.0021082
0.00210428
0.00203521
0.00200998
0.00200995
0.00201009
0.0020094
0.00200957
0.00203952
0.00204224
0.00204404
0.00204227
0.00206982
0.00207
0.00207369
0.00207683
0.00205806
0.00205743
0.00205668
0.00205398
0.00205219
0.0020887
0.00216175
0.00207774
0.00204762
0.00206515
0.0020278
0.00203416
0.00201375
0.00197554
0.00195891
0.00199563
0.00196774
0.00190295
0.00186613
0.00194636
0.00200926
0.00204598
0.00195016
0.00196717
0.00198504
0.00198835
0.00200176
0.00200406
0.00202922
0.00201165
0.00203428
0.00203073
0.00198369
0.00195752
0.00175759
0.00192872
0.00199112
0.00193452
0.00206449
0.00202465
0.00196974
0.0019596
0.00190826
0.00194555
0.00193487
0.00192099
0.00141752
0.001773
0.00173817
0.00132022
0.00126566
0.00172047
0.00181164
0.00160616
0.00149146
0.00178749
0.00172377
0.00137817
0.00158282
0.00182254
0.00189826
0.00164816
0.00149548
0.00181489
0.00178597
0.00140664
0.00134665
0.00175582
0.00182864
0.00148684
0.001432
0.00180837
0.00187139
0.00151036
0.00154175
0.00159123
0.00152123
0.00155372
0.00148549
0.00147819
0.00148016
0.00147943
0.00160236
0.00160038
0.0015979
0.00160582
0.0016673
0.0021024
0.00200122
0.00197104
0.00195352
0.00194271
0.00163901
0.00163627
0.00163312
0.00164611
0.00174456
0.00207614
0.00204439
0.00201837
0.0020016
0.001992
0.00184633
0.00183426
0.00182105
0.00182268
0.00189595
0.00173294
0.00161819
0.00147593
0.00151106
0.00145433
0.00144623
0.00144685
0.0014453
0.00166081
0.00166249
0.0016629
0.00166593
0.00170834
0.00200204
0.00194011
0.00191607
0.00190599
0.00190127
0.00173243
0.00172988
0.00172683
0.00173521
0.00180358
0.00205711
0.00204213
0.00202353
0.00201221
0.00200583
0.00182752
0.00182289
0.00181869
0.00183056
0.00192602
0.00181854
0.00175697
0.00167281
0.00168774
0.00167656
0.00161802
0.00160828
0.00160947
0.00161147
0.00183911
0.00184371
0.00185318
0.00187143
0.00188858
0.00192638
0.00190125
0.00188517
0.00187823
0.00187549
0.00180688
0.00180502
0.00180252
0.00180539
0.0018378
0.00189878
0.00185083
0.00184555
0.00184744
0.00184901
0.00186806
0.00199203
0.00192052
0.00185964
0.00170026
0.00165052
0.00162427
0.00162371
0.00162669
0.00162824
0.00187424
0.00187538
0.00188252
0.00189978
0.00191621
0.00188161
0.00186694
0.00185761
0.00185602
0.00185736
0.00169466
0.00169463
0.00169207
0.0016849
0.00168041
0.00166648
0.00163766
0.00162447
0.00162102
0.0016207
0.0013798
0.00138017
0.00137838
0.00137132
0.00136027
0.00128262
0.00127822
0.00126906
0.00126482
0.00126299
0.00119891
0.00119986
0.00120272
0.00121251
0.00122999
0.00103293
0.00102942
0.00102245
0.00102097
0.00102173
0.00100069
0.00100643
0.00101494
0.00102295
0.0010213
0.000854899
0.000820545
0.000813447
0.00081156
0.000810766
0.000832481
0.000831353
0.000832007
0.000837915
0.000866544
0.00107553
0.00108114
0.00108229
0.00107567
0.00106742
0.00119188
0.00119026
0.00118969
0.00119509
0.00121386
0.00141582
0.00140314
0.00140233
0.00140513
0.00140793
0.00163617
0.00164139
0.00164481
0.00163802
0.00160834
0.00183615
0.00185091
0.00184785
0.00184392
0.00184264
0.00190893
0.0019136
0.00191524
0.00190494
0.00187185
0.00206543
0.00207128
0.00207101
0.00207178
0.00207435
0.00231175
0.00231013
0.00230847
0.00230147
0.00226604
0.00226729
0.00229437
0.00230697
0.00231186
0.00231285
0.00239919
0.00239131
0.00238274
0.00237757
0.00238439
0.00239397
0.00240982
0.00241634
0.00241973
0.00242191
0.0024818
0.00248018
0.00247779
0.00247215
0.00245414
0.00238303
0.00238278
0.00238705
0.00239093
0.00239355
0.00247681
0.00247304
0.00246946
0.00246976
0.00246878
0.00246037
0.00244978
0.00244857
0.00245164
0.00245494
0.00235803
0.00235696
0.00235497
0.00235207
0.00236013
0.00227909
0.00227098
0.00227253
0.00227392
0.00227424
0.00229683
0.00230029
0.00230838
0.00232576
0.00235399
0.00230027
0.00227785
0.00226198
0.00225341
0.00224891
0.00218008
0.00218254
0.00218839
0.00220242
0.00223361
0.00219292
0.00216231
0.0021579
0.00215715
0.00215782
0.00208281
0.00208319
0.00208442
0.00208817
0.00210701
0.00198554
0.0019597
0.00196947
0.00197309
0.0019766
0.00197864
0.00203625
0.00203955
0.00204253
0.00203422
0.00207493
0.00207339
0.00207041
0.00206822
0.00201615
0.00201566
0.0020159
0.0020196
0.00203694
0.0020699
0.00203805
0.0020227
0.00202302
0.0020366
0.00221217
0.00207993
0.002012
0.00201349
0.00189791
0.00197155
0.0019505
0.00186958
0.0018654
0.00191642
0.00197384
0.00196143
0.00195339
0.00198411
0.0019975
0.00196231
0.00192193
0.00196578
0.00200024
0.00198505
0.00194932
0.00196137
0.00194665
0.0019377
0.00191264
0.00176075
0.0016937
0.00166317
0.00167505
0.00171933
0.0017599
0.00174988
0.001667
0.00150953
0.00130183
0.00107432
0.000881058
0.000723661
0.000609548
0.000654414
0.000632918
0.000629275
0.000629452
0.000629819
0.00077614
0.000786074
0.000796595
0.0008017
0.000797445
0.00091753
0.000897859
0.000887361
0.000881542
0.000878671
0.00101932
0.00102896
0.00103879
0.00103891
0.00101908
0.00107279
0.00103031
0.0010274
0.00103419
0.00104059
0.00133431
0.00134422
0.00135366
0.0013487
0.00131517
0.0014428
0.00143681
0.001437
0.00144084
0.00144375
0.00167929
0.00167494
0.00166974
0.00166743
0.00167682
0.00171453
0.00173525
0.00173703
0.00173648
0.00173588
0.00180216
0.00180786
0.00181161
0.00180325
0.00176807
0.00193286
0.00192163
0.00192583
0.00193657
0.00194555
0.00215778
0.00215322
0.00214918
0.00214712
0.00214877
0.00210751
0.00212482
0.00213052
0.00213123
0.00213119
0.00209524
0.00209678
0.0020965
0.00209051
0.00208379
0.00228106
0.00227183
0.0022676
0.00227241
0.00227889
0.00236958
0.00236612
0.00236378
0.00236814
0.0023806
0.00224198
0.00224052
0.00224128
0.00224139
0.00224028
0.00229392
0.00229474
0.00229556
0.00229586
0.00229312
0.00221724
0.00218423
0.00217933
0.00217999
0.00218098
0.00234909
0.00235158
0.00235848
0.00237245
0.00238314
0.00219964
0.00219238
0.00219215
0.00219091
0.00218962
0.0021384
0.0021386
0.00213711
0.00213325
0.00214217
0.00206471
0.00205514
0.00206064
0.00206565
0.00206834
0.00206397
0.00206116
0.00205637
0.00204738
0.00203711
0.00187956
0.00189391
0.00190736
0.00191544
0.0019196
0.00203399
0.00203025
0.00202413
0.00201002
0.00197023
0.00213707
0.00212873
0.00211896
0.00211208
0.00210839
0.00201116
0.00201994
0.00202884
0.00202759
0.00196611
0.00196696
0.00196936
0.00197069
0.00197984
0.00197709
0.00197296
0.00196983
0.00197654
0.0019808
0.0019747
0.00196775
0.00217654
0.00217872
0.00218355
0.00218489
0.00215237
0.00193425
0.00198201
0.00202794
0.00195137
0.00189594
0.00200805
0.00199943
0.00189753
0.00187302
0.0020124
0.00202533
0.00202659
0.00202347
0.00202165
0.00189709
0.0018943
0.00188829
0.00188085
0.00200325
0.00200653
0.00199805
0.00199216
0.00185148
0.00185118
0.00184889
0.00184069
0.00183595
0.00210966
0.00203761
0.00202219
0.00201171
0.0020059
0.00201148
0.00201256
0.00201531
0.00202385
0.00214705
0.00190059
0.00198099
0.00196351
0.0019617
0.00196182
0.00196042
0.00196086
0.00196823
0.0019764
0.00197325
0.00193826
0.00195068
0.00195115
0.00195135
0.00196045
0.00196097
0.00196091
0.00195859
0.00194109
0.00183862
0.00184682
0.0019848
0.00200442
0.00196908
0.00189335
0.00195512
0.00195779
0.00187995
0.0021019
0.00201901
0.00198796
0.00207164
0.00204879
0.00198065
0.00198841
0.00195408
0.00186393
0.00177967
0.00167488
0.00154169
0.00144863
0.00137242
0.0013317
0.00131825
0.00130904
0.00126912
0.00118756
0.00105355
0.000918421
0.000778934
0.00067973
0.000583462
0.000637721
0.000641572
0.000636624
0.000627442
0.000619845
0.000580176
0.00057791
0.000576769
0.000582013
0.000615549
0.000800558
0.000820651
0.000816724
0.000804848
0.000793662
0.000794269
0.000792369
0.000790141
0.000791289
0.000806078
0.00100445
0.000978321
0.000971793
0.000971103
0.000971598
0.00124158
0.00124989
0.00125753
0.00125421
0.00122333
0.00133697
0.00130637
0.00130603
0.00131488
0.00132323
0.00160038
0.00159768
0.00159496
0.00159541
0.0016021
0.00155102
0.00155881
0.00156052
0.00155894
0.00155779
0.00155973
0.00156667
0.00157177
0.0015692
0.00156303
0.00183984
0.00181203
0.00180573
0.00181152
0.00181974
0.00199563
0.00199443
0.00199521
0.00200509
0.00203391
0.00187965
0.0018813
0.00188101
0.00187811
0.00187552
0.0018576
0.00186077
0.00186358
0.00186642
0.00188771
0.00212677
0.002109
0.00209369
0.00208989
0.00209149
0.00216257
0.00216269
0.00216815
0.00218781
0.00221697
0.00232158
0.00227803
0.00225973
0.00225409
0.00225324
0.00202263
0.0020238
0.00202201
0.00201689
0.00202716
0.00205415
0.00204486
0.00204992
0.00205279
0.00205331
0.00205794
0.00205754
0.00205696
0.00205774
0.00207086
0.00205814
0.00205497
0.00205446
0.00205363
0.00205319
0.00207313
0.0020739
0.00207506
0.00207478
0.0020671
0.00201057
0.00201369
0.00201398
0.00201314
0.00201231
0.00194675
0.00194101
0.00193107
0.00191513
0.00189526
0.0018708
0.00186335
0.00186884
0.00187468
0.0018784
0.00204244
0.00205007
0.00206234
0.00207589
0.00207618
0.00192998
0.00196705
0.00196478
0.00195683
0.0019498
0.00192592
0.00192757
0.00192754
0.00192472
0.00191517
0.00202118
0.0020051
0.00199821
0.00199297
0.0019902
0.00191809
0.00176003
0.00201602
0.00196661
0.0017873
0.00218027
0.00178786
0.00185659
0.00233637
0.00184335
0.00186865
0.00257474
0.00180146
0.0021345
0.00195865
0.00240003
0.00192009
0.00181909
0.00159863
0.00141509
0.0012225
0.00111261
0.00103554
0.000987061
0.000936202
0.000860105
0.000754684
0.000657427
0.000555519
0.000490339
0.000429037
0.00046207
0.000456862
0.000451759
0.000446462
0.000442338
0.000411455
0.000419699
0.000427825
0.0004337
0.000444701
0.00061633
0.000584387
0.000568298
0.00056291
0.000561767
0.000730309
0.000735842
0.00074547
0.000763024
0.000799056
0.000840036
0.000815939
0.000810005
0.000801568
0.000792981
0.00106162
0.00106151
0.00106732
0.00109048
0.00114033
0.00136204
0.00131223
0.0012925
0.00128477
0.00128155
0.00134052
0.00134751
0.00135436
0.00136008
0.00138982
0.00169639
0.00165551
0.0016352
0.00163185
0.00163412
0.00180913
0.00181082
0.00181709
0.00183492
0.00187643
0.00161339
0.00158588
0.00158229
0.00158207
0.0015818
0.00173379
0.00173477
0.00173689
0.00174085
0.00175611
0.00185171
0.00184336
0.00183858
0.00183492
0.00183251
0.00192702
0.001933
0.0019411
0.00194432
0.00192866
0.00194789
0.00196016
0.00195542
0.00194616
0.00193856
0.00204195
0.00205053
0.00206285
0.00207023
0.00205214
0.00199564
0.00199092
0.00198925
0.00198893
0.00198896
0.00192371
0.00192297
0.00192108
0.00191934
0.00192023
0.0019921
0.00200813
0.00201354
0.00201705
0.00201972
0.00201455
0.00201555
0.00201733
0.00201613
0.00199323
0.00190332
0.00188819
0.001888
0.00189184
0.00189481
0.00208002
0.00209066
0.00210663
0.00211685
0.00208322
0.00186501
0.00180355
0.00180249
0.001813
0.00182083
0.00191555
0.00191357
0.00191002
0.00190927
0.00192978
0.001869
0.00183511
0.0018296
0.00182873
0.00182751
0.0019529
0.00196151
0.00197388
0.0019849
0.00198252
0.00183639
0.00189116
0.00188564
0.00187273
0.00186221
0.00192334
0.00193346
0.00194989
0.00196017
0.00189796
0.00180542
0.00180478
0.00180858
0.00180925
0.00180825
0.00198669
0.00199367
0.00200041
0.00199989
0.00197894
0.00197824
0.00188518
0.00181998
0.00199032
0.00199161
0.00182559
0.00185374
0.00185508
0.00185104
0.00184658
0.00196136
0.00196699
0.00197256
0.00197811
0.00198903
0.00186084
0.00182164
0.00195348
0.00193608
0.00180698
0.00187193
0.00195277
0.00194686
0.00180843
0.00180384
0.00194553
0.00198122
0.0019548
0.00220993
0.0020781
0.00205332
0.00213656
0.00211524
0.00203828
0.00196334
0.00188335
0.00190643
0.0019819
0.00198284
0.00194224
0.00194932
0.00199401
0.00197902
0.00191833
0.00197136
0.00199139
0.00202813
0.00207461
0.0020958
0.00202946
0.00203726
0.00209048
0.0019833
0.00201107
0.00200854
0.00199589
0.00198737
0.00199776
0.0020023
0.00198909
0.00198931
0.00198119
0.00194036
0.00190369
0.0017555
0.00188564
0.00190671
0.00178514
0.00181732
0.00192821
0.00191365
0.00192934
0.00192234
0.00189601
0.00191939
0.00190764
0.00185173
0.00190084
0.00189414
0.0019425
0.00198395
0.00192438
0.00192981
0.00195276
0.00202344
0.00196442
0.00194919
0.00203333
0.0023016
0.00202285
0.00196015
0.00206425
0.00203024
0.00202395
0.00185579
0.00155348
0.00115032
0.000781647
0.000659188
0.000724774
0.00109876
0.00133611
0.00172612
0.00194731
0.00198666
0.00200509
0.0020179
0.00233678
0.00235248
0.00236858
0.00236879
0.00228658
0.00164624
0.00176651
0.00178397
0.00178294
0.00177684
0.00243885
0.00246257
0.00249103
0.0024954
0.00240696
0.00171578
0.00172874
0.00173241
0.0017349
0.00173385
0.0025038
0.00252973
0.00256577
0.00259148
0.00251057
0.0024675
0.00265507
0.00267849
0.00266884
0.00265668
0.00186946
0.00187224
0.0018694
0.00185172
0.00176071
0.00144229
0.00157064
0.00157835
0.00157764
0.00157648
0.00207317
0.00208474
0.00209767
0.00210571
0.00211946
0.00152512
0.00151811
0.00152123
0.00152355
0.00152094
0.00146038
0.00146168
0.00146339
0.00146734
0.00145706
0.00203907
0.00195744
0.00192899
0.00191211
0.0019003
0.00180631
0.00182157
0.00184662
0.00188116
0.00189498
0.0018867
0.00179365
0.00176857
0.00175771
0.00175124
0.00171919
0.00172832
0.00174541
0.00177437
0.00182383
0.00169446
0.00161361
0.00160149
0.00160544
0.00161012
0.00142581
0.00137865
0.00137299
0.00137323
0.0013716
0.00147503
0.00147388
0.00147085
0.00147288
0.00150952
0.00182062
0.00179065
0.00176793
0.00175472
0.00174844
0.00168313
0.00168315
0.001687
0.00171
0.00181368
0.00170163
0.00169713
0.00169976
0.00170127
0.00170139
0.00170559
0.0017033
0.00169894
0.00169487
0.00170321
0.00175912
0.00167398
0.0016076
0.00143753
0.00137139
0.00135984
0.00136455
0.00136827
0.00136941
0.00167484
0.00167839
0.00168621
0.00170469
0.00172824
0.00172648
0.00169628
0.00167806
0.00167093
0.00166808
0.00140211
0.00140281
0.00140206
0.00139667
0.00138583
0.00135529
0.00134669
0.00133599
0.00132941
0.00132551
0.00118602
0.00118986
0.00119832
0.00121402
0.00122109
0.00109995
0.00110132
0.00109255
0.00108823
0.00108693
0.000888568
0.000890638
0.000890514
0.000884514
0.000871324
0.000853698
0.000865726
0.000869743
0.000868049
0.000864194
0.000732778
0.000734392
0.000738527
0.00074717
0.000755716
0.000738314
0.000725149
0.000718671
0.000715727
0.0007142
0.000700198
0.000704392
0.000711357
0.000722519
0.000742213
0.000635548
0.000637283
0.000634403
0.000627991
0.000621623
0.000523964
0.000524541
0.000525894
0.000530006
0.000541362
0.000569288
0.000548907
0.00054353
0.000541508
0.000540405
0.000552745
0.000553388
0.000556131
0.000564422
0.000588934
0.000717388
0.000733985
0.000730765
0.000721176
0.00071252
0.000657246
0.000657465
0.000657783
0.000660702
0.000678625
0.000803178
0.00077801
0.00077458
0.000776601
0.00077834
0.000779453
0.00067632
0.000685831
0.000657036
0.000648346
0.00064548
0.000644394
0.000638445
0.000588653
0.0006189
0.000636444
0.000636865
0.00063143
0.000626206
0.000529784
0.000527675
0.000526029
0.000529707
0.000559781
0.000551592
0.000522037
0.000516279
0.00051482
0.000514
0.000519057
0.00051835
0.000518189
0.000521438
0.000541395
0.000455445
0.000437734
0.000435128
0.000437518
0.000439631
0.000487334
0.000488293
0.000491152
0.00050019
0.000524712
0.000605019
0.000603261
0.000597382
0.000586204
0.000575909
0.000675648
0.000672353
0.00067123
0.000680681
0.000717654
0.000904899
0.000870405
0.000856063
0.000850112
0.000847395
0.000988549
0.000998386
0.0010072