/*--------------------------------*- C++ -*----------------------------------*\
  =========                 |
  \\      /  F ield         | OpenFOAM: The Open Source CFD Toolbox
   \\    /   O peration     | Website:  https://openfoam.org
    \\  /    A nd           | Version:  7
     \\/     M anipulation  |
\*---------------------------------------------------------------------------*/
FoamFile
{
    version     2.0;
    format      ascii;
    class       volVectorField;
    location    "3";
    object      wallShearStress;
}
// * * * * * * * * * * * * * * * * * * * * * * * * * * * * * * * * * * * * * //

dimensions      [0 2 -2 0 0 0 0];

internalField   uniform (0 0 0);

boundaryField
{
    outlet1
    {
        type            calculated;
        value           uniform (0 0 0);
    }
    Wall
    {
        type            calculated;
        value           nonuniform List<vector> 
40276
(
(0.000262458 5.49397e-05 0.000207189)
(-0.000184955 -6.06216e-06 0.000414599)
(-0.000188295 -5.62193e-06 0.000405989)
(0.000189541 -0.000192689 0.000152619)
(0.000141909 -0.000137112 0.00012976)
(9.3104e-05 -9.41583e-05 0.00012251)
(7.56148e-05 -5.65685e-05 0.000123308)
(8.74031e-05 -3.65885e-05 0.000136164)
(7.24343e-05 -1.86852e-05 0.000131247)
(7.37834e-05 -3.15601e-05 0.000138086)
(0.000471778 4.7423e-05 0.000493512)
(0.000565757 2.14039e-05 0.000539284)
(0.000589917 2.93129e-05 0.000946337)
(0.000568032 3.46517e-05 0.000877839)
(0.000288843 1.28541e-05 0.000257523)
(0.000267543 3.02739e-05 0.00029508)
(0.000307593 5.07516e-05 0.000174891)
(0.000303284 4.07196e-05 0.000114559)
(-2.28503e-06 -0.000134816 4.78651e-06)
(6.52697e-06 -0.000166164 1.92737e-05)
(-0.000115349 2.97572e-05 0.000206091)
(-0.000143864 3.40839e-05 0.000194407)
(-0.000104664 2.85294e-05 6.64024e-05)
(-0.000121937 2.64119e-05 6.29236e-05)
(-9.08989e-05 2.16415e-05 4.24928e-05)
(-0.000102532 2.2666e-05 3.69969e-05)
(-9.10925e-05 3.44728e-05 1.06877e-05)
(-9.10769e-05 3.44716e-05 7.80404e-06)
(-0.00018881 6.03225e-05 4.15579e-05)
(-0.000158952 4.8363e-05 3.10708e-05)
(-0.000170524 5.61711e-05 0.000115587)
(-0.000198576 6.95903e-05 0.000125903)
(-5.26492e-05 -3.06472e-06 0.000159906)
(-4.68869e-05 -4.75186e-06 0.000148639)
(-4.43015e-05 9.31071e-06 5.72507e-06)
(-4.40465e-05 1.03569e-05 5.53321e-06)
(0.000591064 5.16096e-05 0.000126472)
(0.000635614 2.40119e-05 0.000119517)
(0.00117015 0.000274436 0.000248985)
(0.00136126 0.000372523 0.000270458)
(0.00100152 4.08164e-05 3.73886e-05)
(0.000930957 8.04772e-06 6.11868e-05)
(-8.84047e-06 -1.62343e-05 -0.000446132)
(1.32518e-05 -1.41263e-05 -0.000426714)
(-7.64947e-06 -1.47499e-07 -0.000426212)
(-1.14871e-05 -7.9602e-06 -0.000376286)
(-4.29603e-05 1.75254e-06 -0.000383979)
(-3.23037e-05 -4.05304e-06 -0.000329153)
(-5.17209e-05 -5.81996e-07 -0.000300052)
(-5.78506e-05 2.20906e-06 -0.000265094)
(-5.12926e-05 -2.74352e-06 -0.000234722)
(-6.78212e-05 2.89558e-06 -0.000243028)
(-6.49795e-05 -1.05763e-06 -0.000209798)
(-7.01072e-05 4.43243e-06 -0.000209899)
(0.000469148 6.9255e-05 0.000202106)
(0.000467706 8.26664e-05 0.000166528)
(-7.26444e-05 3.43017e-05 0.000209455)
(6.30293e-05 2.19994e-05 0.000187728)
(-7.09102e-05 3.00283e-05 0.000212995)
(-0.000460832 -9.40281e-07 -0.000439937)
(-0.000487029 -5.11843e-06 -0.00044905)
(1.87493e-05 3.42231e-05 0.000286708)
(-1.25922e-05 -1.14662e-05 0.000221837)
(1.81996e-05 -5.14981e-07 1.14968e-05)
(1.90668e-05 -3.85957e-07 1.34299e-05)
(1.7699e-05 -1.67008e-07 1.24008e-05)
(1.52579e-05 -2.65942e-07 1.13059e-05)
(1.81371e-05 -3.31838e-07 1.19323e-05)
(-9.4695e-05 -1.79632e-06 -8.69558e-05)
(-0.000103798 8.87127e-06 -9.38003e-05)
(-7.33996e-05 7.35482e-06 -0.000187533)
(-6.94707e-05 -9.27221e-07 -0.00019218)
(-4.42701e-05 3.29067e-06 -4.38675e-05)
(-4.41304e-05 3.30594e-06 -4.18917e-05)
(-3.86797e-05 3.01132e-06 -3.84872e-05)
(-3.78728e-05 4.11647e-06 -3.7151e-05)
(-4.27621e-05 1.99209e-06 -3.97614e-05)
(2.20475e-05 -1.26581e-06 -9.3145e-06)
(1.92352e-05 -1.45038e-06 -1.29065e-05)
(3.3706e-06 3.28772e-06 -3.26101e-07)
(4.33441e-06 3.32878e-07 -2.11428e-07)
(8.78806e-06 -3.46912e-08 -5.77013e-07)
(2.00339e-05 -7.44013e-06 1.37924e-05)
(1.87543e-05 -7.92729e-06 1.38625e-05)
(1.76705e-05 -1.85685e-05 1.18331e-05)
(1.63788e-05 -1.00242e-07 1.28532e-05)
(1.43222e-05 -2.18808e-07 1.16058e-05)
(1.48152e-05 -2.62781e-07 1.28039e-05)
(1.57095e-05 -1.92792e-05 1.09654e-05)
(7.90149e-06 -2.34346e-05 6.82319e-06)
(6.0224e-06 -2.28352e-05 5.92885e-06)
(-2.88916e-05 -2.38414e-07 -2.63368e-05)
(1.32089e-05 -1.34984e-07 1.16561e-05)
(1.29943e-05 -2.77783e-07 1.24769e-05)
(1.18383e-05 -1.5958e-07 1.15326e-05)
(9.98267e-06 -5.07591e-08 1.09585e-05)
(8.08479e-06 -9.78229e-08 1.03539e-05)
(6.28399e-06 -1.26549e-07 9.83969e-06)
(2.29908e-06 1.21314e-07 7.41276e-06)
(8.15059e-07 4.4701e-08 6.69029e-06)
(-5.54341e-07 -4.19232e-08 5.98491e-06)
(-4.61427e-06 1.42829e-07 1.90205e-06)
(-5.21516e-06 5.13979e-08 1.03461e-06)
(-3.25308e-05 3.0556e-06 -2.87235e-05)
(-5.71663e-06 2.35e-08 1.09931e-07)
(-6.34079e-06 -9.67416e-06 -7.65156e-06)
(-4.84598e-06 -1.04309e-05 -5.64983e-06)
(-5.94571e-06 -7.01127e-08 -8.20701e-07)
(-6.07222e-06 -1.00723e-07 -1.85172e-06)
(-5.40963e-06 5.88492e-08 -2.37654e-06)
(-6.00555e-06 -1.45003e-07 -2.99851e-06)
(-5.22898e-06 -1.28517e-08 -3.59107e-06)
(-5.5417e-06 -2.4439e-07 -4.22603e-06)
(-4.8889e-06 -1.6463e-07 -4.93714e-06)
(-4.8748e-06 -4.85183e-07 -5.05917e-06)
(-3.35287e-06 -1.4343e-06 -2.32655e-05)
(-4.0942e-06 -2.50529e-06 -2.50915e-05)
(-5.08894e-06 -2.72532e-06 -2.35926e-05)
(-0.000253004 -6.14017e-05 0.000475525)
(-0.000254146 -5.94988e-05 0.00043136)
(-7.90684e-06 -1.84495e-06 9.79663e-06)
(-1.49081e-05 -2.41406e-06 1.51068e-05)
(-1.52814e-05 -2.53448e-06 2.18685e-05)
(-9.03457e-06 -2.71687e-06 1.73488e-05)
(-1.42413e-06 -2.3932e-05 -2.02235e-06)
(-2.53205e-07 -2.12268e-05 -8.5699e-07)
(-0.000128247 2.97999e-05 0.000185132)
(-0.000111023 3.92605e-05 0.000157018)
(-0.000159896 -1.27892e-05 0.000273827)
(-0.000139852 -1.86686e-05 0.000235962)
(-0.000104787 -2.79582e-06 0.000175948)
(-9.17011e-05 -5.93383e-06 0.000151479)
(-0.000161814 9.11546e-05 0.000484491)
(-0.000226371 0.000158359 0.0006831)
(1.32989e-05 -1.38897e-05 0.000187991)
(5.51268e-06 -7.02518e-06 0.000158058)
(-9.97516e-05 2.68178e-05 0.000192745)
(-5.34551e-05 6.87515e-07 0.000167706)
(-0.000188793 -4.10247e-05 0.000506103)
(-0.000190664 -2.24194e-05 0.000504704)
(-0.000189446 -3.35608e-05 0.000533934)
(-0.00020805 -9.41239e-06 0.000537201)
(-0.000558335 4.80738e-06 -0.00015083)
(-0.000639805 5.11439e-06 -0.00018278)
(-2.27635e-05 -7.96777e-05 9.96114e-06)
(-2.65578e-05 -7.89413e-05 1.19277e-05)
(-2.15681e-05 -4.37867e-05 6.5354e-05)
(-2.5315e-05 -5.35581e-05 8.16673e-05)
(-2.91088e-05 -5.24646e-05 6.5974e-05)
(-2.32902e-05 -4.03854e-05 5.36515e-05)
(-1.54735e-05 -8.61503e-05 8.48818e-06)
(-1.99006e-05 -9.83581e-05 6.53344e-06)
(-2.35173e-05 -8.34869e-05 8.82103e-06)
(-2.1902e-05 -8.64948e-05 9.21429e-06)
(-2.31363e-05 -0.000128638 -1.56102e-05)
(-1.99746e-05 -0.000111411 -1.41257e-05)
(-7.64473e-06 -5.66211e-05 -3.31677e-06)
(-9.88056e-06 -5.05363e-05 -4.75767e-06)
(-6.09298e-05 -3.09061e-05 9.44739e-05)
(-5.57148e-05 -3.27274e-05 8.9269e-05)
(7.48657e-05 4.8636e-06 -0.000242782)
(7.61242e-05 -3.24546e-06 -0.00022885)
(-0.000136432 -5.73205e-05 -1.23685e-05)
(-0.000135418 -6.41099e-05 -1.45356e-05)
(-0.000313612 -4.93591e-05 0.000129996)
(-0.000335707 -5.38502e-05 0.00011974)
(-0.000287394 -7.00983e-05 -2.57065e-05)
(-0.000280588 -5.79751e-05 -3.47006e-05)
(-0.000164532 0.000191142 0.000223989)
(-0.000157697 0.000238907 0.000206934)
(-0.000245317 -4.45475e-05 1.29883e-05)
(-0.000129 -4.59016e-05 -1.81768e-05)
(-0.00020493 -7.83123e-05 7.4113e-05)
(-0.000176742 -7.68169e-05 6.27374e-05)
(-0.000224419 -5.20402e-05 5.80235e-05)
(-6.63736e-05 -4.13134e-05 -6.98486e-06)
(-3.91372e-05 -2.08902e-05 6.05552e-05)
(-3.22529e-05 -1.93669e-05 5.59082e-05)
(0.000722958 -0.000313325 0.000478503)
(0.000633314 -0.000258468 0.000384342)
(0.000662486 -0.000405059 0.000238063)
(0.000573358 -0.000277074 0.000261926)
(0.000600054 -0.000345832 0.00023293)
(0.000387323 -0.000334202 0.000177692)
(0.000494738 -0.000376663 0.000215856)
(0.000391837 -0.00031824 0.000176336)
(0.000590498 -0.00030885 0.000398366)
(0.000638223 -0.000381199 0.000388481)
(0.000605038 -0.000350878 0.000317471)
(0.000517805 -0.000402833 0.000182474)
(0.000614841 -0.000425893 0.000176927)
(0.000513585 -0.000351952 0.000217997)
(0.000255497 -0.000236113 0.000152688)
(0.000374908 -0.00034077 0.000176245)
(0.000298311 -0.000259864 0.000171764)
(0.000244328 -0.000235939 0.000161769)
(0.000105538 -9.5082e-05 0.000128218)
(0.000129177 5.03281e-05 0.000145819)
(0.000168122 5.78265e-05 0.000165638)
(0.000160301 5.01585e-05 0.000166631)
(0.000164759 4.38507e-05 0.000130213)
(0.000210803 4.85245e-05 0.000147023)
(0.000166156 5.60104e-05 0.00016343)
(0.000159752 5.09068e-05 0.000157256)
(0.000110276 -4.11149e-06 0.000217844)
(0.000102832 -2.46059e-07 0.000218439)
(9.37089e-05 1.05447e-06 0.000152315)
(0.000112464 -8.44496e-06 0.000187941)
(9.11471e-05 -1.84496e-05 0.000153884)
(8.02123e-05 -1.10147e-05 0.000139116)
(0.000110057 -6.06845e-06 0.000194209)
(0.000102487 2.0091e-06 0.000198513)
(7.28143e-05 -1.7083e-05 0.000166774)
(7.26316e-05 -1.93076e-05 0.00014753)
(7.33951e-05 -2.98346e-06 0.000129967)
(6.58626e-05 -3.42667e-06 0.000112412)
(5.76868e-05 -1.50988e-05 0.000101966)
(7.531e-05 -6.20549e-06 0.000137954)
(3.60424e-05 -2.20398e-05 9.5474e-05)
(3.33807e-05 -1.87828e-05 7.86658e-05)
(8.45439e-05 2.48892e-06 0.000218132)
(7.94854e-05 6.09795e-06 0.00020028)
(7.20775e-05 8.74297e-06 0.000188594)
(6.42324e-05 1.55615e-05 0.000172422)
(7.99605e-05 -1.31432e-05 0.000217689)
(5.13478e-05 -2.09039e-05 0.000185904)
(3.67942e-05 -8.75489e-06 0.000140192)
(3.01586e-05 -3.60715e-06 0.000124055)
(2.40196e-05 -1.87262e-05 0.000127773)
(9.85206e-05 3.30646e-05 0.000133794)
(5.56781e-05 1.43886e-05 0.000115915)
(0.000120534 4.29133e-05 0.000130858)
(0.000124086 4.0414e-05 0.000123849)
(7.8223e-05 2.73734e-05 0.000101054)
(8.83484e-05 3.10234e-05 0.000107614)
(5.74801e-05 -2.25269e-05 0.000156987)
(3.80794e-05 -2.19297e-05 0.000134198)
(3.23887e-05 -3.3822e-05 0.000130329)
(-4.90462e-06 -4.14371e-05 0.00011678)
(1.11807e-05 -3.264e-05 8.02393e-05)
(-1.59838e-05 -3.84872e-05 6.20742e-05)
(2.4391e-06 -2.13966e-05 8.91091e-05)
(2.39542e-05 -1.23677e-06 8.31656e-05)
(-3.28404e-05 -3.59719e-05 3.39641e-05)
(-1.56232e-05 -1.742e-05 3.38946e-05)
(-2.74542e-05 -2.45187e-05 1.22838e-05)
(-2.36814e-06 -6.74628e-06 2.87211e-05)
(3.53958e-05 1.22808e-05 4.70686e-05)
(5.15168e-05 1.79669e-05 6.77302e-05)
(4.42266e-05 1.49764e-05 5.0371e-05)
(0.000297895 1.78621e-05 0.000519345)
(0.000338144 4.64596e-05 0.000613206)
(0.000298522 -9.24354e-06 0.000530042)
(0.000302619 2.077e-05 0.000532275)
(0.000428352 0.000120944 0.000478448)
(0.00047315 0.000131036 0.000581865)
(0.000338667 0.000118136 0.000482147)
(0.000375718 0.000112933 0.000558312)
(0.000324626 0.000111958 0.000504778)
(0.00031105 9.51256e-05 0.000528028)
(0.000444374 0.0001742 0.000593873)
(0.000372831 0.000149022 0.000445694)
(0.000434994 0.000160243 0.000565781)
(0.000274779 0.000102887 0.000461629)
(0.000373014 0.000134563 0.000579598)
(0.000482987 0.000155278 0.000461419)
(0.000409432 0.000151096 0.000519517)
(0.000411003 0.000151913 0.000530485)
(0.000449225 0.000143634 0.000633513)
(0.000476124 0.000186674 0.000572207)
(0.000519086 0.000201866 0.000559649)
(0.000488296 0.000197825 0.000513288)
(0.000482497 0.000165988 0.000620821)
(0.000470237 0.000169587 0.000628107)
(0.000497506 9.26091e-05 0.000576699)
(0.00062959 9.89429e-05 0.000613067)
(0.000484098 0.000115923 0.000588513)
(0.000360526 0.000112795 0.000441752)
(0.000458372 0.00011001 0.000556426)
(0.000494406 8.53176e-05 0.000486753)
(0.000365054 6.66729e-05 0.000357372)
(0.000388071 0.000117007 0.000418063)
(0.000431962 9.97301e-05 0.000415858)
(0.000421774 0.000108085 0.000394638)
(0.000602424 -4.40239e-05 0.000538703)
(0.000624826 -6.70264e-05 0.00053355)
(0.000657704 -0.000187879 0.000489364)
(0.00049174 -7.82401e-05 0.000432169)
(0.000592628 -0.000158379 0.000358381)
(0.000455998 -1.373e-05 0.000390077)
(0.000638924 -0.000175249 0.000371566)
(0.000410102 -3.65978e-05 0.000306953)
(0.000542177 -0.000133383 0.000272472)
(0.000677542 -0.000288915 0.000261266)
(0.000387312 6.46389e-05 0.000392255)
(0.000389379 9.47108e-05 0.000398293)
(0.000425846 1.90939e-05 0.000310459)
(0.00041647 6.45929e-05 0.000320762)
(0.000465544 0.000168491 0.000439056)
(0.000477444 0.000165521 0.000568055)
(0.000487528 0.00016793 0.000520222)
(0.000507587 0.000146976 0.000420314)
(0.00056604 0.000186393 0.000458474)
(0.000545711 0.00020944 0.000575686)
(0.00047154 0.000164001 0.000566487)
(0.000508394 0.000166821 0.000603801)
(0.000517332 0.000192227 0.000417973)
(0.000495662 0.000176531 0.00057008)
(0.000498365 0.000181187 0.000578416)
(0.000601437 0.000218902 0.000692714)
(0.000588463 0.000213379 0.000545697)
(0.000448315 0.000129316 0.000388907)
(0.000633193 0.00019942 0.00043461)
(0.000498117 0.000110641 0.000382636)
(0.000643175 0.000160821 0.000383313)
(0.000560215 0.000197687 0.000442193)
(0.000568198 0.00018113 0.000522125)
(0.000756358 0.000290317 0.00053461)
(0.000598941 0.000205394 0.00041211)
(0.000575246 0.000175122 0.000437914)
(0.000804534 0.00028914 0.000464233)
(0.000598638 0.000263841 0.000489664)
(0.000638301 0.000224309 0.000616528)
(0.000593375 0.000195011 0.000655963)
(0.000701137 0.000247405 0.000612831)
(0.000708887 0.000256374 0.00058886)
(0.000367522 0.000137012 0.00050334)
(0.000366857 0.0001333 0.000508634)
(0.000248779 6.61187e-05 0.000473116)
(0.000367815 0.0001327 0.000550995)
(0.00044963 0.000118357 0.000692483)
(0.000415395 0.000110085 0.00064659)
(0.000385875 0.000133951 0.000523585)
(0.000411079 0.000146381 0.000553746)
(0.000396096 0.000141566 0.000602571)
(0.000368202 4.96583e-05 0.000671559)
(0.000317711 2.58195e-05 0.000609586)
(0.000378674 9.55743e-05 0.000650477)
(0.000349838 8.18834e-05 0.000611017)
(0.00031323 2.25166e-05 0.000526212)
(0.000430835 0.00015645 0.000567134)
(0.00045773 0.000125704 0.000655369)
(0.000401611 0.00010495 0.000623264)
(0.000387664 -2.63983e-05 0.000653685)
(0.000489685 0.000133075 0.000758932)
(0.000367591 4.4297e-05 0.000657949)
(0.000475357 0.000180257 0.000564845)
(0.000524843 0.000195311 0.000616071)
(0.000470406 0.000137228 0.000684944)
(0.000440843 0.000159578 0.000590937)
(0.000515403 0.000193895 0.000605236)
(0.000519187 0.000114491 0.000744157)
(0.00052135 0.000127649 0.000814984)
(0.000413575 2.33644e-05 0.000716982)
(0.000374999 2.3245e-05 0.000628312)
(0.000407782 5.07477e-05 0.00067503)
(0.000467171 0.000111163 0.00070904)
(0.000395142 5.08937e-05 0.000630704)
(0.000518645 0.000201828 0.000635439)
(0.00052415 8.80893e-05 0.000787427)
(0.000600901 0.00017334 0.00087895)
(0.000275155 -2.83138e-06 0.00048467)
(0.000290252 3.76142e-05 0.000506893)
(0.000348247 0.000119885 0.000548033)
(0.000367157 7.14831e-05 0.000621858)
(0.000339246 1.17991e-05 0.000564332)
(0.000436866 7.71131e-05 0.000699991)
(0.000328276 -2.81789e-05 0.000555516)
(0.000334866 1.74883e-05 0.000561008)
(0.000422513 0.000128015 0.000665716)
(0.000343664 3.53627e-05 0.000582441)
(0.000293628 2.51258e-05 0.000491631)
(0.00035847 -1.02465e-05 0.000588566)
(0.000304581 3.02019e-05 0.000508527)
(0.000342609 3.47519e-05 0.000562394)
(0.000414346 2.43839e-05 0.00067601)
(0.000319564 7.89987e-05 0.000547183)
(0.000316456 4.40696e-05 0.000527961)
(0.000402496 -6.9831e-05 0.000612939)
(0.000480766 0.000110361 0.000763539)
(0.000411574 -4.46942e-05 0.000702771)
(0.000524472 4.93702e-05 0.00085923)
(0.000400157 -9.97254e-06 0.000675591)
(0.0004216 5.20212e-06 0.000705687)
(0.000535301 0.000143482 0.000783951)
(0.000425142 3.5324e-05 0.000681021)
(0.000484356 1.42402e-05 0.000774899)
(0.000516373 3.02793e-05 0.000844632)
(0.000517189 7.42737e-06 0.000826046)
(0.000417125 2.28209e-05 0.000665824)
(0.000468591 2.5593e-05 0.000743462)
(0.000415955 1.16327e-05 0.000657092)
(0.000471043 3.74353e-05 0.000742885)
(0.000563751 0.000172012 0.000731001)
(0.00056064 0.000197344 0.000659861)
(-2.10426e-05 -4.91459e-05 0.000160619)
(0.000575828 0.000142387 0.000815017)
(0.000501522 0.000128735 0.00070764)
(0.000648207 0.000240396 0.000700758)
(0.000588724 0.000223438 0.000627445)
(0.000631541 0.000219069 0.000713291)
(-2.5309e-05 -4.88074e-05 0.000160061)
(0.000565951 0.000173961 0.000757555)
(0.000569915 0.000199892 0.000683921)
(0.000622353 0.000223922 0.000723223)
(0.000571669 0.000161992 0.000807403)
(0.000634479 0.000163018 0.000946957)
(-2.2943e-05 -4.85922e-05 0.000157294)
(0.000471815 5.04846e-05 0.000766388)
(0.000436523 4.19154e-05 0.000729774)
(0.000467921 6.82008e-05 0.000736392)
(0.000536729 4.20353e-05 0.000823487)
(0.00046714 8.93762e-05 0.000727568)
(-2.5418e-05 -3.80759e-05 0.000160312)
(0.000583881 0.000224518 0.00069596)
(0.000610176 0.000110378 0.000875193)
(0.000696235 0.000206992 0.000960498)
(0.000673058 0.000223648 0.000799079)
(0.000753006 0.000270136 0.000672036)
(0.000823212 0.000314726 0.000656198)
(0.000657392 0.000188222 0.000860518)
(0.000619938 0.000177743 0.000773304)
(0.000656205 0.000273064 0.000631723)
(0.000691649 0.000251202 0.000691197)
(0.000671546 0.000217497 0.000782987)
(0.000725257 0.000248822 0.000827827)
(0.000768465 0.000297436 0.000806979)
(0.000682857 0.0002136 0.00086731)
(0.000697503 0.000164629 0.00097021)
(0.000570074 0.00012948 0.000812978)
(0.000641598 0.000131816 0.00100472)
(0.000516359 8.52349e-05 0.000784519)
(0.000604391 7.58957e-05 0.000920114)
(0.000751022 0.0002478 0.000952338)
(0.000623349 0.000194312 0.000800745)
(0.00067216 0.000176327 0.000958117)
(0.000556941 8.95408e-05 0.000899876)
(0.000571111 0.000140653 0.00082395)
(0.000758825 0.000132205 0.00106764)
(0.000653536 0.000131234 0.00102125)
(0.000600921 4.98256e-05 0.000967044)
(0.000591526 1.82469e-05 0.000939777)
(0.000482813 1.29593e-05 0.000806491)
(0.000471444 3.96363e-05 0.000757987)
(0.000615681 0.000108843 0.000896031)
(0.000632574 0.000121657 0.000987884)
(0.00058822 1.52845e-05 0.000923665)
(0.000607278 3.7587e-05 0.000953711)
(0.000609608 -3.17138e-05 0.000946395)
(0.000583434 4.60597e-05 0.000893387)
(0.000688957 0.00012902 0.00100325)
(-3.14045e-05 -4.31796e-05 0.000168719)
(0.000516079 -6.3931e-06 0.000842997)
(0.000467505 4.11866e-05 0.000742796)
(0.000674497 0.000159333 0.000992677)
(0.000710869 0.00020273 0.00106153)
(0.000586854 7.32171e-08 0.000979107)
(0.000742412 7.56343e-05 0.00116879)
(0.000544118 5.00115e-05 0.000852434)
(0.000667409 3.71473e-05 0.00102407)
(0.000535338 8.20435e-05 0.000847944)
(0.000512713 8.12584e-06 0.000785846)
(0.000648774 -7.42046e-05 0.000963928)
(0.000725939 5.21087e-05 0.00114753)
(0.000722499 3.58882e-05 0.00113558)
(0.000308958 -4.67995e-05 0.000442762)
(0.000232871 1.66961e-05 0.000358139)
(0.000250183 1.36561e-05 0.000361991)
(0.000235418 6.74481e-06 0.000357502)
(0.000173061 3.02862e-05 0.000306486)
(0.000215237 3.14352e-05 0.000345506)
(0.000268169 1.37414e-05 0.000362905)
(0.000208803 4.50871e-05 0.000344033)
(0.000309813 3.46883e-05 0.000546452)
(0.00030319 4.76744e-05 0.000508203)
(-2.31535e-05 -4.18235e-05 0.000153834)
(-2.68292e-05 -4.38516e-05 0.000160744)
(-2.48226e-05 -4.05157e-05 0.000148874)
(-2.63083e-05 -3.68236e-05 0.000149739)
(0.000324028 3.74168e-05 0.000515939)
(0.000287464 7.0663e-05 0.000466416)
(0.000327713 2.46846e-05 0.00045518)
(0.000280487 4.43557e-05 0.00040529)
(0.000322806 1.33858e-05 0.000442978)
(0.000306523 3.73638e-05 0.000423481)
(-2.9759e-05 -3.62116e-05 0.00015515)
(0.000320951 1.53541e-05 0.00043027)
(-3.50926e-05 -2.8867e-05 0.000165239)
(-3.01729e-05 -3.45862e-05 0.000156212)
(0.000259318 4.06648e-05 0.000236436)
(0.000233844 3.98767e-05 0.000230166)
(0.000233352 2.72493e-05 0.000236337)
(-3.3518e-05 -3.44222e-05 0.000154232)
(-2.65715e-05 -3.83354e-05 0.000165011)
(-2.59605e-05 -4.18823e-05 0.000161533)
(-3.23789e-05 -3.37506e-05 0.000175447)
(-3.39278e-05 -4.23109e-05 0.000183091)
(-2.97602e-05 -3.02745e-05 0.000167031)
(-2.86115e-05 -2.61959e-05 0.000159798)
(-3.47248e-05 -3.44748e-05 0.000159359)
(0.000220518 5.48913e-05 0.00014935)
(0.000264427 5.58433e-05 0.000180586)
(0.000219373 4.20415e-05 0.000154958)
(0.000204534 5.33703e-05 0.00015235)
(0.000234496 5.16377e-05 0.000173646)
(0.000268332 3.6656e-05 0.000195724)
(0.000261887 4.0299e-05 0.00022967)
(0.0003018 2.49042e-05 0.00024953)
(0.000293149 3.61322e-05 0.000225179)
(0.000256327 4.13684e-05 0.000238572)
(0.000271179 5.14573e-05 0.000187171)
(0.00028499 3.70524e-05 0.000202898)
(0.000265383 2.6459e-05 0.000300013)
(0.000245847 3.2693e-05 0.000307637)
(0.000284985 1.96652e-05 0.000344418)
(0.000235995 2.93083e-05 0.000320819)
(0.000258085 1.53271e-05 0.000326205)
(0.000216061 3.26515e-05 0.000308615)
(0.000309095 4.66171e-05 0.000366373)
(0.000322767 2.11557e-05 0.000326073)
(0.000298706 2.68147e-05 0.000302985)
(0.000258604 2.77878e-05 0.000291437)
(0.000297176 1.95592e-05 0.000389402)
(0.00029462 2.12066e-05 0.000340357)
(0.000318687 4.17515e-05 0.000417339)
(0.00031079 4.17951e-05 0.000303166)
(0.000336373 1.71278e-05 0.000352538)
(0.000325512 1.15495e-05 0.000294221)
(0.000344534 2.12116e-05 0.000344734)
(0.000341481 2.19406e-05 0.000323754)
(0.000321078 3.5536e-05 0.000395279)
(0.000340914 1.43103e-05 0.000426111)
(0.000356582 -5.38426e-06 0.000406505)
(0.000365051 3.18994e-05 0.000464515)
(0.00040428 2.5173e-05 0.000461384)
(0.000397615 -5.23469e-06 0.000396959)
(0.000382658 -9.52916e-06 0.000317134)
(0.000390636 1.42952e-05 0.000388022)
(0.000331242 1.96636e-05 0.000270876)
(0.000318936 1.49503e-05 0.000225929)
(0.000347019 2.36373e-05 0.000267349)
(0.000180798 5.16886e-05 0.000120981)
(0.000209339 5.27801e-05 0.000144111)
(0.000157349 4.94989e-05 9.55346e-05)
(0.000207856 5.70604e-05 0.000115393)
(0.000243577 4.51392e-05 0.000152106)
(0.00029499 3.30371e-05 0.000182961)
(0.000250116 5.57654e-05 0.0001506)
(0.000107517 3.94981e-05 5.73067e-05)
(0.000208991 6.41552e-05 7.6471e-05)
(2.86779e-05 9.02243e-06 3.95243e-05)
(5.84688e-05 2.43436e-05 3.90993e-05)
(0.000159404 6.0104e-05 3.87158e-05)
(0.000198992 5.93111e-05 9.96369e-05)
(0.00018461 3.56653e-05 3.90712e-05)
(0.000236639 5.41924e-05 0.000107143)
(0.00029442 4.22579e-05 8.03118e-05)
(0.000180904 5.75616e-05 4.10133e-05)
(0.000188626 4.80652e-05 5.57323e-05)
(0.000277422 5.6448e-05 6.99502e-05)
(0.000418792 2.98901e-06 0.000343932)
(0.000465365 -1.79666e-05 0.000454532)
(0.000424709 -1.241e-05 0.000389045)
(0.000472033 -1.02151e-05 0.000447625)
(0.000340405 3.04554e-05 0.000234993)
(0.000395877 -6.62518e-06 0.000299406)
(0.000364074 1.26694e-05 0.000260825)
(0.000374678 9.82422e-06 0.000287027)
(0.000340875 3.10522e-05 0.000195344)
(0.000373033 1.66762e-05 0.000260503)
(0.000452627 -3.04456e-05 0.000267087)
(0.000512912 -1.67543e-05 0.000361452)
(0.000513183 -5.15359e-05 0.000409581)
(0.000487685 -3.0185e-05 0.000333885)
(0.000433413 -3.19563e-06 0.000365115)
(0.000338885 3.2849e-05 0.000112325)
(0.00036484 2.15413e-05 0.000145353)
(0.000410451 -1.15102e-05 0.000211954)
(0.000381724 1.56609e-05 0.000148644)
(0.000384626 8.93193e-06 0.000174905)
(0.000308733 4.55833e-05 0.000113206)
(0.000359441 2.07755e-05 0.000136699)
(0.000497834 -1.76855e-05 0.000269041)
(0.000512741 -4.88649e-05 0.000302897)
(0.000577421 -7.4571e-05 0.000278109)
(0.000482439 -2.48609e-05 0.000236233)
(0.00044765 -6.46256e-06 0.000213091)
(0.000479856 -2.52456e-05 0.000208524)
(0.000278958 4.78146e-05 0.000474648)
(0.000293155 2.50734e-05 0.000481565)
(0.000328466 -2.52603e-05 0.000509208)
(0.000321143 1.08867e-05 0.000500387)
(0.000270892 6.1158e-05 0.000453757)
(0.000301439 2.67724e-06 0.000452426)
(0.000422361 -2.97019e-05 0.000625934)
(0.000291961 2.88339e-05 0.00047833)
(0.000318462 1.05465e-05 0.000487436)
(0.000360411 2.08452e-05 0.000554132)
(0.000348135 2.7881e-06 0.000493979)
(0.000316567 1.86902e-05 0.000454793)
(0.000343726 2.00546e-05 0.000498323)
(0.00044524 -1.05861e-05 0.000634337)
(0.000469039 1.9491e-05 0.000771304)
(0.000347826 4.22911e-05 0.000553128)
(0.000390604 4.41545e-05 0.000630532)
(0.000392136 5.90912e-05 0.000658041)
(0.000414835 4.35248e-06 0.0006353)
(0.000546925 -7.00078e-05 0.00077135)
(0.000497953 -8.95592e-05 0.000674237)
(0.000400892 7.72417e-05 0.000665978)
(0.000412447 7.4263e-06 0.000624181)
(0.000360288 2.67678e-05 0.000528454)
(0.000399471 2.13503e-05 0.000581901)
(0.0003857 3.1303e-06 0.000520785)
(0.000334651 2.24286e-05 0.000457852)
(0.00037446 1.83151e-05 0.000511021)
(-3.62686e-05 -2.99362e-05 0.000161219)
(0.000463652 -4.35374e-05 0.000607554)
(0.000412277 7.55904e-06 0.000530966)
(0.000460144 2.5377e-05 0.00061209)
(0.000390171 1.50882e-05 0.000585397)
(0.00044373 -7.59778e-06 0.000602776)
(0.000508026 -1.73517e-05 0.000681836)
(0.000432543 -1.88081e-05 0.00052786)
(0.000401944 -8.70998e-06 0.000446578)
(0.000404985 2.88428e-05 0.00053086)
(0.00062494 -3.2229e-05 0.000954776)
(0.000422863 3.56172e-05 0.000661985)
(-3.64137e-05 -2.57636e-05 0.000148985)
(0.00044772 1.40508e-05 0.000662696)
(0.000510562 1.79245e-05 0.000763858)
(0.000603016 -3.66081e-05 0.000873288)
(0.000586326 -6.658e-05 0.000786742)
(0.000411312 1.26992e-05 0.000580781)
(-4.15397e-05 -2.12e-05 0.000160756)
(0.000491335 -9.35146e-05 0.000547676)
(0.000525467 -2.73377e-06 0.000699935)
(0.000580971 -2.27215e-05 0.000845237)
(0.000491402 -1.97496e-07 0.000705338)
(0.000552765 1.56411e-05 0.000790185)
(0.000606863 -2.69659e-05 0.00081073)
(0.000514075 3.40288e-05 0.000705175)
(0.000673626 -8.8026e-05 0.000855289)
(0.00055983 -4.39333e-05 0.00070699)
(0.000610443 -1.58891e-05 0.000819993)
(0.000475589 4.21955e-05 0.000750609)
(0.00047787 -9.21908e-06 0.000709971)
(0.000583409 -3.81759e-05 0.000847447)
(0.000647568 -1.71264e-05 0.000979972)
(0.00062003 -8.87785e-05 0.000894286)
(0.000556803 9.60387e-05 0.000879825)
(0.000674458 -6.11925e-05 0.00102299)
(0.000624506 0.000123229 0.000998572)
(0.000582506 3.83139e-05 0.000910071)
(0.000564279 1.76002e-05 0.000851718)
(0.000672897 -4.7703e-05 0.000972415)
(0.000535926 -6.48017e-06 0.00080964)
(0.000570563 -2.43207e-05 0.000801541)
(0.000660752 -5.4238e-05 0.000904781)
(0.000774551 -8.44711e-05 0.00102706)
(0.000571571 -3.84123e-05 0.000805472)
(0.000635005 -7.47266e-05 0.000783855)
(0.000695357 5.03547e-06 0.000947126)
(0.000461831 -5.72417e-06 0.000513755)
(0.000420021 -4.41989e-05 0.000485335)
(0.000489332 -5.74362e-05 0.000505528)
(0.000490674 1.25904e-05 0.000616269)
(0.000570327 -2.51647e-05 0.000692408)
(0.000518519 1.5901e-06 0.000588256)
(0.000510773 -5.06139e-05 0.000511247)
(0.000517978 -4.60709e-05 0.000427533)
(0.00051814 -1.91454e-05 0.000496829)
(0.000603461 -6.26333e-05 0.00060516)
(0.000574451 -8.37417e-05 0.00049752)
(0.0006053 -5.80537e-05 0.000586932)
(0.000633496 -7.6677e-05 0.000717491)
(-4.42591e-05 -1.70178e-05 0.000158983)
(0.000552578 -5.2466e-05 0.000617391)
(0.000599527 -4.17978e-05 0.000703139)
(0.000736704 -0.000137287 0.000859516)
(0.00064695 -8.88326e-05 0.000698513)
(0.000676851 -4.25098e-05 0.00082308)
(-4.75521e-05 -1.23229e-05 0.000160288)
(0.000689212 -0.000122378 0.000696054)
(0.000678728 -0.000160327 0.000526749)
(-3.60551e-05 -3.43126e-05 0.000183581)
(0.000659514 -5.22356e-05 0.000710639)
(0.000562218 -5.8282e-05 0.000465912)
(-4.01142e-05 -2.701e-05 0.000186828)
(0.000571213 -7.10906e-05 0.00040032)
(0.000569656 -4.26019e-05 0.000462036)
(-3.43361e-05 -3.41337e-05 0.000168817)
(0.000670264 -7.2288e-05 0.000406671)
(-3.7486e-05 -1.66403e-05 0.000170141)
(-4.07863e-05 -2.85869e-05 0.000183628)
(0.000626323 -0.000127458 0.000461662)
(0.000650101 -0.000133599 0.000401202)
(-4.19518e-05 -2.71634e-05 0.000183329)
(0.000640083 -5.4087e-05 0.000574461)
(0.000574077 -0.000402689 0.000209158)
(-4.54912e-05 -1.97228e-05 0.000178596)
(0.000617819 -0.000437046 0.000132907)
(0.000501087 -0.000375669 0.000126809)
(-4.45059e-05 -2.03752e-05 0.000182701)
(0.000433424 -0.000354579 0.000175509)
(0.000492654 -0.000398105 0.000148886)
(-4.84036e-05 -1.29799e-05 0.000191408)
(0.000371115 -0.000326198 0.000114898)
(0.000452154 -0.0003362 0.000229034)
(-3.722e-05 -1.95624e-05 0.000164673)
(-3.37163e-05 -1.7331e-05 0.000151867)
(0.000488493 -0.000375456 0.000123933)
(-3.93538e-05 -2.37428e-05 0.000154318)
(-4.12183e-05 -1.81445e-05 0.000168653)
(0.000311558 -0.000283127 0.000154748)
(-3.96615e-05 -1.57698e-05 0.000153177)
(-4.35941e-05 -1.31452e-05 0.000167023)
(0.000375604 -0.000341189 0.000146336)
(-4.21816e-05 -1.25392e-05 0.000151332)
(0.000275652 -0.00025998 0.000122245)
(0.000182189 -0.000195893 9.76959e-05)
(0.000278131 -0.000269216 0.000150089)
(0.000202609 -0.000192369 0.000130541)
(0.000169981 -0.000172947 0.000106611)
(0.000237607 -0.000209374 0.000137292)
(0.000174125 -0.000176749 0.000103841)
(0.000311404 -0.000246306 0.000203257)
(0.000347212 -0.000285363 0.000147955)
(0.000375859 -0.00036588 6.97578e-05)
(0.000522216 -0.000432249 8.95805e-05)
(0.000372085 -0.000306866 0.000126851)
(0.000213655 -0.000219753 7.35387e-05)
(0.000361475 -0.000334886 0.00010889)
(0.000262458 -0.000226653 0.000138145)
(0.000237029 -0.000230554 0.000141545)
(0.000267604 -0.000215906 0.000172405)
(0.000321106 -0.00026211 0.000126178)
(0.000133892 -0.000166985 5.34131e-05)
(0.000212256 -0.000187302 0.000115588)
(0.000156019 -0.000156495 9.55403e-05)
(6.25103e-05 -7.72677e-05 6.07891e-05)
(0.000109523 -0.000117285 8.92885e-05)
(8.75412e-05 -8.48157e-05 9.44339e-05)
(7.33305e-05 -7.98039e-05 8.84132e-05)
(5.93445e-05 -4.4428e-05 8.83183e-05)
(4.44786e-05 -5.03044e-05 6.19653e-05)
(-2.55477e-05 -3.87168e-05 0.00014513)
(6.43625e-05 -5.20859e-05 8.03284e-05)
(5.28503e-05 -5.59013e-05 6.28215e-05)
(4.35663e-05 -4.31188e-05 6.62363e-05)
(3.89889e-05 -2.98258e-05 5.92326e-05)
(0.000157358 -0.000176962 0.00010921)
(-2.83688e-05 -3.54147e-05 0.000147484)
(0.000100214 -0.000113903 7.82595e-05)
(0.000162834 -0.000150198 0.00011609)
(0.000126689 -0.000124088 0.000102598)
(9.83568e-05 -0.000104266 9.56406e-05)