/*--------------------------------*- C++ -*----------------------------------*\
  =========                 |
  \\      /  F ield         | OpenFOAM: The Open Source CFD Toolbox
   \\    /   O peration     | Website:  https://openfoam.org
    \\  /    A nd           | Version:  7
     \\/     M anipulation  |
\*---------------------------------------------------------------------------*/
FoamFile
{
    version     2.0;
    format      ascii;
    class       volScalarField;
    location    "9.25";
    object      p;
}
// * * * * * * * * * * * * * * * * * * * * * * * * * * * * * * * * * * * * * //

dimensions      [0 2 -2 0 0 0 0];

internalField   nonuniform List<scalar> 
382612
(
0.00207959
0.00183379
0.00199525
0.00199822
0.00173748
0.00220606
0.00212111
0.00201538
0.00184553
0.00168174
0.00187956
0.00186726
0.00180941
0.00183628
0.00195148
0.00207126
0.00184622
0.00198632
0.00202003
0.00203976
0.00205846
0.00208261
0.0021067
0.00211437
0.00209581
0.0020727
0.00204985
0.00245259
0.00249633
0.00253332
0.00256405
0.00235491
0.00234866
0.00234007
0.00232452
0.00223989
0.00195414
0.00204214
0.00210214
0.00213236
0.00215693
0.00217865
0.00209289
0.00207737
0.00205678
0.00203052
0.00194747
0.00196148
0.00198135
0.00199768
0.00215738
0.0021421
0.00212363
0.00210362
0.00207837
0.00191934
0.00197214
0.00205567
0.00211687
0.00200563
0.00207779
0.00195018
0.00196651
0.00261106
0.00201344
0.00186133
0.0021215
0.00232604
0.00242703
0.00255574
0.00257278
0.00257498
0.00257603
0.00270942
0.00270006
0.00268765
0.00266352
0.00256002
0.00236209
0.00246236
0.00250152
0.00252799
0.00254664
0.00287628
0.00288349
0.00289191
0.00287705
0.00272844
0.00211606
0.00223886
0.00226896
0.00228353
0.00229317
0.00246812
0.00248231
0.00249977
0.00250185
0.00243738
0.00201132
0.00208133
0.00210144
0.00211413
0.00212774
0.00214323
0.00201871
0.00201175
0.00200366
0.0020006
0.00181061
0.00183915
0.00185985
0.00187475
0.0021251
0.00210736
0.00208735
0.00206728
0.00204098
0.00170094
0.00182028
0.00185197
0.0018663
0.00187476
0.00203663
0.0020193
0.00200021
0.00197808
0.00191214
0.00165882
0.00184324
0.00196911
0.00199114
0.00199956
0.00200225
0.00220961
0.00221841
0.00223067
0.00224369
0.00235791
0.00233714
0.00220583
0.00217445
0.00215542
0.00214183
0.00189645
0.00188678
0.00187544
0.00186988
0.00198601
0.00199846
0.00200918
0.00201599
0.00200851
0.00200555
0.00199923
0.00199463
0.00203673
0.00195657
0.00188739
0.00188716
0.00189355
0.00189781
0.00183077
0.00198412
0.00202105
0.00170852
0.00187461
0.0018164
0.00209853
0.0023063
0.00178209
0.00180301
0.00213877
0.00174325
0.0018185
0.00179676
0.00172781
0.00172434
0.00173301
0.00173854
0.00223851
0.00224903
0.0022665
0.00228965
0.00229105
0.00196878
0.00192901
0.00191869
0.0019179
0.00191909
0.00223358
0.00224818
0.00227179
0.00230132
0.00233019
0.00200451
0.00211217
0.00211956
0.00211826
0.00211345
0.00211028
0.00193246
0.00193251
0.00193471
0.00194645
0.00165249
0.00165514
0.00166194
0.00166469
0.00198153
0.00198229
0.00198262
0.00198545
0.00202213
0.00167843
0.00166871
0.00202647
0.00192504
0.00161408
0.00184474
0.00198216
0.00169637
0.00197328
0.00193962
0.00166179
0.0015929
0.00190234
0.00190858
0.00175358
0.00157745
0.00181072
0.00195088
0.00200817
0.00197894
0.00197092
0.00183613
0.00166712
0.00200573
0.00193106
0.00199316
0.00202438
0.00194242
0.00199195
0.00211462
0.0020888
0.00189204
0.0019381
0.00197449
0.001985
0.00199799
0.00201169
0.00215933
0.00215715
0.00214894
0.00210905
0.00237177
0.00234742
0.00232894
0.00231195
0.00272684
0.00271682
0.00270747
0.00268435
0.00255201
0.00247469
0.0024121
0.00241583
0.00242713
0.00243036
0.00243614
0.00210099
0.00210316
0.00209858
0.00208509
0.00209296
0.00255162
0.0025142
0.00251673
0.00252595
0.00253411
0.00236038
0.0023469
0.00232521
0.0023083
0.0023326
0.00254366
0.00249716
0.00249638
0.00251005
0.00252133
0.00271927
0.00271978
0.00271974
0.00271086
0.00264106
0.0025573
0.0026801
0.00270922
0.00272169
0.00272893
0.00314448
0.00315074
0.00315886
0.00314152
0.00297304
0.00220597
0.00223023
0.00224534
0.00226736
0.00228533
0.00235996
0.00235237
0.00234214
0.0023216
0.00222534
0.00204681
0.00212321
0.0021553
0.00217874
0.00219435
0.00252882
0.00254318
0.00256666
0.00257798
0.00249744
0.00185428
0.0018505
0.00185588
0.00187225
0.00188783
0.00195694
0.00195498
0.00196667
0.00198087
0.00199049
0.00193702
0.00192254
0.00190442
0.00189444
0.00188524
0.00243372
0.0024345
0.00241318
0.00238727
0.00236903
0.00187534
0.00186649
0.00185608
0.00185832
0.00189999
0.00237669
0.00232624
0.00229506
0.00227041
0.00225488
0.00174964
0.00174525
0.0017407
0.0017549
0.00185312
0.00205484
0.0019918
0.00198285
0.00198698
0.00199183
0.0022234
0.0022358
0.00225485
0.00228098
0.00232948
0.00195742
0.00186674
0.00185488
0.00186156
0.00186795
0.00218912
0.0021997
0.002215
0.0022321
0.0022406
0.00201152
0.00204345
0.0020456
0.00204652
0.00204353
0.00204068
0.00196734
0.0019665
0.00196608
0.00197135
0.00181426
0.00181167
0.00181328
0.0018142
0.00198341
0.00198678
0.0019898
0.001992
0.00200007
0.00183358
0.0020876
0.00203383
0.00202125
0.00201733
0.00201456
0.00196688
0.00213506
0.00220752
0.00215971
0.00214477
0.00213681
0.00213138
0.00199379
0.00199332
0.00199236
0.00199169
0.00203923
0.00203704
0.00203341
0.00203066
0.00205557
0.00205677
0.00205877
0.00206014
0.00204496
0.0020466
0.00205073
0.00205375
0.00222543
0.00222966
0.00223402
0.00223729
0.00225669
0.00206076
0.00206253
0.00208897
0.00215783
0.00201604
0.00205989
0.00201998
0.0019097
0.00179124
0.00197929
0.00198234
0.00182533
0.00215161
0.00210696
0.00208004
0.00212337
0.00200094
0.00204158
0.00211551
0.00219628
0.00219382
0.00229241
0.00228005
0.00224635
0.00224073
0.00224213
0.00224422
0.00233134
0.00232837
0.00232418
0.00231927
0.00231679
0.00236661
0.00237481
0.00237738
0.00238011
0.00238335
0.00231286
0.00231301
0.00231252
0.00230879
0.00230338
0.00213412
0.00207611
0.00208492
0.00208738
0.00208721
0.0020873
0.0021495
0.0021424
0.00213342
0.00212793
0.00208093
0.00208521
0.00209046
0.00209441
0.00206007
0.00206094
0.00206224
0.00206159
0.00205691
0.00208068
0.00227284
0.00226032
0.00226122
0.00226048
0.00225851
0.00227383
0.0023551
0.00230338
0.00229114
0.00229654
0.00230486
0.00231096
0.00251947
0.00251849
0.00251554
0.00250336
0.00246282
0.00248991
0.00251527
0.00252542
0.00253197
0.00253666
0.00245025
0.00244422
0.00243641
0.00242797
0.00242202
0.00234854
0.00237933
0.00239323
0.00239946
0.00240347
0.00220887
0.00219774
0.0021845
0.0021776
0.00212972
0.0021343
0.00213545
0.00213679
0.00216889
0.00216695
0.00216484
0.00216051
0.00221742
0.00221947
0.00222549
0.00223079
0.00245606
0.00244509
0.00243094
0.00241313
0.00238043
0.00221932
0.00214195
0.00212809
0.00224277
0.00216591
0.00211508
0.00208486
0.0021504
0.00201708
0.00203725
0.00208786
0.00213971
0.00218451
0.00209481
0.00211044
0.00222112
0.00218078
0.00211201
0.00229357
0.00236918
0.00246027
0.00249789
0.00244584
0.00245345
0.0024622
0.00247147
0.00247811
0.00258633
0.00257953
0.00256942
0.00255404
0.00252331
0.00255058
0.00258147
0.00259378
0.00260093
0.00260547
0.00251511
0.00251113
0.00250481
0.00249404
0.00248051
0.00246395
0.00247442
0.00248078
0.00248407
0.00248598
0.00242267
0.0024126
0.00239928
0.00238395
0.00235178
0.00221973
0.00224113
0.00224067
0.00223803
0.00223596
0.00230973
0.00230102
0.00229064
0.00227606
0.00222971
0.0021532
0.00210287
0.00211258
0.0021168
0.00211698
0.00211646
0.00213907
0.00213545
0.00213141
0.0021338
0.00218172
0.00218662
0.00219318
0.00219827
0.00213362
0.00213256
0.00213183
0.00213065
0.00212169
0.00217635
0.00215812
0.00210001
0.00210019
0.00214491
0.00210698
0.00207704
0.00208458
0.00211945
0.00221509
0.0021273
0.00205328
0.00206284
0.00213247
0.00206881
0.00231168
0.00262911
0.00220476
0.0021049
0.00231708
0.0024677
0.00255652
0.00257369
0.00255348
0.00253447
0.00244929
0.00248439
0.00249958
0.00250675
0.00251081
0.00258621
0.00258104
0.0025746
0.00256527
0.00253613
0.00254099
0.00257186
0.00258124
0.00258735
0.00259209
0.00254556
0.0025376
0.002527
0.00251602
0.00250303
0.00254217
0.0025728
0.00258404
0.00259088
0.00259565
0.00254923
0.00254661
0.00254061
0.00252641
0.00248853
0.00237101
0.00236622
0.00237086
0.00237813
0.00238409
0.00244219
0.00244028
0.00243783
0.00243174
0.00240837
0.00229503
0.00229286
0.00229767
0.00230308
0.00230668
0.00218686
0.00218292
0.00217807
0.00217404
0.00217011
0.00211021
0.0020871
0.0020948
0.00209776
0.00209758
0.00209583
0.00211756
0.00211411
0.00210945
0.00210644
0.0020946
0.00209601
0.00209908
0.00210247
0.00206916
0.00206942
0.00206774
0.00206313
0.00206118
0.00210154
0.00218819
0.00218106
0.00218485
0.00218998
0.00219426
0.00214122
0.00213721
0.00213202
0.0021283
0.00213222
0.00205786
0.0020448
0.00205579
0.00205937
0.00206092
0.00206281
0.00208092
0.00207571
0.00206936
0.00206418
0.00208536
0.00208588
0.00208699
0.00208803
0.00208322
0.00208116
0.00208104
0.00208062
0.00207344
0.00208411
0.0020785
0.00205218
0.0020729
0.00206881
0.0020053
0.0020163
0.00210125
0.00212727
0.00215016
0.00209066
0.00206353
0.00203391
0.00208017
0.00206948
0.00197452
0.00187293
0.00210202
0.0020713
0.00213148
0.00217143
0.00230457
0.0021697
0.00218102
0.00233727
0.00210384
0.00206607
0.00213936
0.002282
0.00220382
0.00211593
0.00210227
0.00223507
0.00227833
0.00213726
0.00209129
0.00210207
0.00233929
0.00233173
0.00238368
0.00238894
0.00239553
0.00238561
0.00238384
0.00238475
0.00238615
0.00238124
0.00237952
0.00237836
0.00237948
0.00237732
0.00246468
0.00248436
0.00248966
0.0024938
0.00249731
0.00241687
0.00241461
0.00240985
0.00239843
0.00237262
0.00230723
0.00230408
0.0023045
0.00230762
0.00231117
0.00241272
0.00240771
0.00240193
0.0023943
0.0023704
0.00238328
0.00240784
0.00241678
0.00242399
0.00243006
0.002521
0.0025164
0.00250933
0.00249337
0.00245242
0.00236635
0.00238493
0.00239782
0.00240574
0.00241044
0.00249797
0.00249268
0.00248667
0.00248076
0.00246337
0.00245991
0.00246808
0.00247243
0.00247643
0.00247953
0.00239523
0.00239304
0.0023914
0.00239026
0.00237845
0.00233152
0.00232136
0.00231847
0.00231965
0.00232127
0.00223381
0.00222894
0.00222303
0.00222094
0.00223468
0.00225545
0.00227077
0.00227347
0.00227312
0.00227316
0.00216399
0.0021661
0.00216787
0.00216819
0.0021615
0.00216012
0.00217471
0.00217439
0.00217085
0.00216754
0.00204468
0.00204066
0.00203624
0.00203548
0.00206646
0.00207154
0.00207438
0.00207695
0.002067
0.0020631
0.00205823
0.00205101
0.0020431
0.00204307
0.00204094
0.00204568
0.0020508
0.00205454
0.00207243
0.00207303
0.00207321
0.00207343
0.00207325
0.00205531
0.00205182
0.00205101
0.00205096
0.0020507
0.00201511
0.00201139
0.00200629
0.00200246
0.00202156
0.00202624
0.00203009
0.00203397
0.00210504
0.00210131
0.00209948
0.00209724
0.00206853
0.00206594
0.0020678
0.00207041
0.00209288
0.0020971
0.00210306
0.00210961
0.00211514
0.00208016
0.00209114
0.00207237
0.00204715
0.00188838
0.00197074
0.00209327
0.00204081
0.00199621
0.00204115
0.00208115
0.00208148
0.0018076
0.00196283
0.00195138
0.00176958
0.00186113
0.00194389
0.00200058
0.00195762
0.00207571
0.00205221
0.00210441
0.00219103
0.002314
0.00214737
0.00210089
0.00216682
0.00216406
0.00211776
0.00200973
0.00198963
0.0019406
0.00220414
0.00243926
0.00260496
0.00267833
0.0026444
0.00250798
0.00230631
0.00207906
0.00187099
0.00173774
0.00178675
0.00179947
0.00179856
0.00179559
0.00191924
0.00191206
0.00190427
0.00189967
0.00189453
0.00210706
0.00217293
0.00218915
0.00219034
0.00218899
0.00227218
0.00226347
0.00225347
0.00224644
0.00223021
0.00216741
0.00221801
0.00223064
0.00223579
0.00223919
0.00220321
0.00220205
0.00219764
0.00218478
0.00213986
0.00232504
0.00233421
0.00233806
0.0023458
0.00235306
0.00228748
0.00228705
0.0022835
0.0022696
0.00222296
0.00214826
0.00215605
0.00216132
0.00216488
0.00216637
0.00230669
0.00230287
0.00230006
0.00230191
0.00230776
0.00227749
0.00227072
0.00227566
0.00228186
0.00228638
0.00227981
0.00227821
0.00227438
0.00226709
0.00226118
0.00221493
0.00223212
0.00223856
0.00224007
0.00223998
0.00214969
0.00214736
0.00214453
0.00214404
0.00214972
0.00221743
0.00220608
0.00219974
0.00219633
0.00219484
0.00211073
0.00210621
0.00210155
0.0021034
0.00213082
0.00210008
0.00208735
0.00208933
0.00209349
0.00209633
0.00211997
0.00212472
0.00213251
0.00214192
0.0021445
0.00202201
0.00200903
0.00201102
0.0020138
0.00201539
0.00198377
0.0019815
0.00197803
0.00197643
0.0019908
0.00200406
0.00199926
0.00199964
0.00200001
0.00199917
0.00203664
0.00203283
0.00202751
0.00202317
0.00202363
0.00197322
0.0020019
0.0020111
0.0020213
0.00203126
0.00203975
0.00201381
0.00200648
0.00199559
0.00198337
0.00200419
0.00200512
0.00200743
0.00200918
0.00204582
0.00204375
0.00204166
0.00203747
0.00202878
0.00201396
0.00205882
0.00208327
0.00207388
0.00201653
0.00192089
0.00202724
0.00197793
0.00184297
0.00199467
0.00202766
0.00187808
0.00167404
0.00176752
0.00195095
0.00185767
0.0016472
0.00181528
0.00188169
0.00192843
0.00191488
0.0019418
0.00196665
0.00200252
0.00195382
0.00162768
0.00184007
0.00184947
0.00163826
0.00161994
0.00166676
0.00172851
0.00189138
0.0020574
0.00217953
0.00222733
0.00217712
0.00203435
0.00182231
0.0015856
0.00136355
0.00125816
0.00130885
0.00131615
0.00131147
0.00130603
0.0014264
0.00142008
0.00141396
0.00141104
0.00140352
0.0016861
0.00173706
0.00174741
0.00174472
0.00173982
0.00186874
0.00186092
0.00185239
0.00184887
0.00184772
0.00202919
0.00203655
0.00204097
0.00204633
0.00205046
0.00194988
0.00194485
0.00194076
0.00194392
0.00194788
0.00210826
0.00208705
0.00208251
0.00208601
0.0020903
0.0020156
0.00201349
0.00201444
0.0020238
0.00203124
0.00213249
0.00210029
0.00208772
0.00208619
0.0020873
0.00209158
0.00209008
0.0020876
0.00208684
0.00210013
0.00223846
0.00223749
0.00223124
0.0022288
0.00222919
0.0021789
0.00217826
0.00217894
0.00218722
0.00222008
0.00214388
0.00214309
0.00213506
0.00213141
0.00213028
0.00211929
0.00212116
0.00212555
0.00213566
0.0021511
0.00208005
0.00206788
0.0020664
0.00206796
0.0020694
0.00212212
0.00212188
0.00212109
0.00211898
0.00211259
0.00214735
0.00210804
0.00215962
0.00215325
0.00208335
0.00207951
0.00208262
0.00208518
0.00208593
0.00202391
0.00202231
0.0020211
0.00202518
0.00204876
0.00199842
0.00199388
0.00199669
0.00199738
0.00199701
0.00198827
0.00198686
0.00198444
0.00198207
0.00199071
0.00198934
0.00199368
0.00199482
0.00199455
0.00199413
0.00195361
0.00195433
0.00195545
0.00195972
0.00197985
0.00214185
0.00213626
0.00212144
0.00211044
0.00210438
0.00207951
0.00208278
0.0020896
0.0021061
0.00215741
0.00206483
0.00208105
0.00207333
0.00207065
0.00206931
0.00207031
0.00201534
0.00201701
0.00202078
0.00203284
0.00195229
0.00196307
0.00196864
0.00197201
0.00210028
0.002097
0.00209309
0.00208333
0.002056
0.00192805
0.00198838
0.00212316
0.00202296
0.00192388
0.00190993
0.0020912
0.00193409
0.00192581
0.00195739
0.0019682
0.00197002
0.00196922
0.00188049
0.00188001
0.00187835
0.00187718
0.00188473
0.00194394
0.00197838
0.00198182
0.00198013
0.00197783
0.00201881
0.00202609
0.00203248
0.00202752
0.00197022
0.00196209
0.00200975
0.00203288
0.00203977
0.0020447
0.00205096
0.00201102
0.00201351
0.00201418
0.00200652
0.00194061
0.00194842
0.00195805
0.00196455
0.00206737
0.00206073
0.00205256
0.00204067
0.00202352
0.00195625
0.00205219
0.00206155
0.00203246
0.00195527
0.00176642
0.00194162
0.00190265
0.00166233
0.0016237
0.00184846
0.00178448
0.00155126
0.00180274
0.0018758
0.00194103
0.00198168
0.0018356
0.00185197
0.00190105
0.00187533
0.00184122
0.00193183
0.00199035
0.00192242
0.00205681
0.00204852
0.00198587
0.00193113
0.00189143
0.00200453
0.00193294
0.00176888
0.0020259
0.0020495
0.00205193
0.00207567
0.00203765
0.00203491
0.00201097
0.0020457
0.00169988
0.00185743
0.00190765
0.00169227
0.00178142
0.0019252
0.00196816
0.00199899
0.00188432
0.00195383
0.00189965
0.00178424
0.00175153
0.00188954
0.00192498
0.00171104
0.00179611
0.001956
0.00196537
0.00177629
0.0018736
0.00199308
0.00200322
0.00190621
0.00179594
0.00199091
0.00195001
0.00171442
0.00196057
0.00194843
0.00191966
0.00187227
0.00179435
0.00178464
0.00178774
0.00178947
0.00201507
0.00201559
0.00201645
0.00202403
0.0020714
0.00228737
0.00223487
0.00221564
0.00220589
0.00220107
0.00200489
0.00199988
0.00199484
0.00200341
0.00207721
0.00224864
0.00222304
0.00220974
0.00220349
0.0022008
0.0021586
0.0021555
0.00215257
0.00215739
0.00220459
0.00213704
0.00211854
0.00200384
0.00195851
0.00190868
0.00190133
0.00190286
0.00190368
0.00209261
0.00209443
0.00209528
0.00209476
0.00211202
0.00228217
0.00224908
0.00223588
0.00223216
0.00223143
0.00215324
0.00214912
0.00214428
0.00214667
0.00218699
0.00232396
0.00231969
0.0023139
0.00231131
0.00231024
0.00223262
0.00223257
0.00223241
0.00223529
0.00226243
0.00225988
0.00223936
0.00215681
0.0021029
0.00202329
0.00199061
0.00198849
0.00199022
0.00199136
0.00216905
0.00216945
0.00217254
0.00218358
0.00219866
0.00226599
0.00226028
0.00225439
0.00225379
0.00225511
0.00228987
0.00228794
0.00228462
0.00227968
0.00227917
0.00231223
0.00232288
0.00232773
0.00232801
0.00232736
0.00234178
0.00244719
0.00240898
0.00228962
0.00212581
0.00201927
0.00204468
0.00205341
0.00205289
0.00205038
0.00218623
0.00218138
0.00217852
0.00218233
0.00218818
0.00222582
0.0022418
0.00224739
0.00225449
0.00226141
0.00214735
0.00215055
0.00215088
0.0021371
0.00208617
0.00188685
0.00186692
0.00186588
0.00187242
0.00187873
0.00173893
0.00174319
0.00174606
0.00173741
0.00171007
0.00147161
0.00146122
0.00145523
0.00145574
0.00145791
0.00145901
0.00145537
0.00145183
0.00145271
0.00145962
0.00121015
0.00120523
0.00120754
0.00121403
0.00122016
0.00118345
0.00118308
0.00118416
0.00118634
0.00118294
0.00101363
0.00100155
0.00100282
0.00100507
0.00100719
0.000922227
0.000917025
0.000914152
0.000918448
0.000944064
0.00116844
0.00118289
0.00118522
0.00117957
0.00117266
0.00131315
0.00130798
0.00130354
0.00130701
0.00132881
0.00154739
0.00153024
0.0015287
0.0015327
0.00153745
0.00172228
0.00172748
0.00173202
0.00172812
0.00170234
0.00181185
0.00183598
0.0018422
0.00184248
0.00184227
0.00175335
0.00175609
0.00175736
0.00175412
0.00176108
0.0018329
0.00181104
0.00181238
0.00181693
0.00182091
0.00193222
0.00193259
0.00193243
0.00192913
0.0019208
0.00190903
0.00188933
0.00188664
0.0018865
0.00188564
0.0021001
0.00210192
0.0021082
0.00211821
0.00212701
0.00187766
0.00185323
0.00185289
0.00185638
0.00185854
0.00191885
0.00191956
0.00192037
0.00191965
0.00191587
0.00191813
0.00189274
0.0018877
0.00188667
0.00188625
0.00203301
0.00203811
0.00204819
0.00206522
0.00207819
0.002095
0.00206235
0.00204929
0.00204363
0.00204096
0.0018473
0.00184471
0.0018407
0.00183757
0.00184926
0.00187417
0.00186129
0.00186246
0.00186447
0.00186545
0.00210628
0.00211614
0.00213331
0.00215725
0.00216046
0.00222257
0.0022394
0.00222032
0.00220367
0.00219373
0.00220869
0.0022113
0.00221809
0.00223069
0.0022294
0.00231386
0.00230097
0.00230038
0.00229974
0.00230133
0.00207855
0.00207413
0.00206791
0.00206354
0.00206463
0.00193143
0.0019442
0.00198597
0.00200329
0.00201897
0.00203194
0.00206718
0.00206427
0.00205866
0.00203574
0.00215622
0.00215586
0.00215627
0.00215777
0.00213922
0.00213089
0.00212495
0.00212286
0.00213798
0.00214636
0.00205917
0.00210783
0.00198599
0.00188363
0.00213414
0.00207352
0.00201674
0.00194504
0.00179582
0.00191632
0.00190096
0.00180715
0.00185412
0.00184392
0.00193537
0.00196547
0.00191087
0.00195281
0.00197831
0.00191944
0.00183702
0.00194884
0.00191398
0.00177258
0.00180801
0.00190071
0.00185606
0.00180115
0.00191222
0.00163835
0.00145622
0.00129859
0.00121543
0.00119238
0.00118608
0.0011592
0.00110321
0.00103453
0.000957816
0.00087709
0.00078894
0.000696679
0.000601332
0.000685296
0.000673946
0.000672984
0.000675043
0.000676816
0.000806919
0.000817887
0.000829778
0.000836784
0.000832689
0.00089118
0.000892874
0.000890349
0.000885065
0.000880067
0.000832044
0.000841839
0.000851821
0.000857678
0.000868019
0.00110026
0.00105485
0.00104333
0.0010441
0.00104777
0.00119217
0.00120054
0.00120797
0.0012077
0.00120993
0.00148958
0.00146661
0.00145441
0.0014532
0.00145414
0.00165208
0.00165052
0.00165293
0.0016673
0.00170686
0.00154226
0.00154794
0.0015482
0.0015469
0.00154494
0.00150578
0.00150993
0.00151247
0.00151405
0.0015358
0.00186158
0.00184045
0.00182271
0.00181602
0.00181437
0.00188592
0.00188669
0.00189113
0.00190819
0.00196487
0.00167109
0.00167827
0.00167941
0.00167903
0.00167832
0.00170667
0.00170876
0.00171152
0.00171644
0.00173732
0.00197061
0.00196826
0.00195154
0.00194078
0.00193556
0.0019161
0.00191887
0.00192561
0.00194251
0.00198932
0.00171368
0.00170645
0.00170774
0.00171002
0.00171071
0.00178101
0.0017817
0.0017824
0.00178181
0.00178063
0.00185846
0.00183637
0.00183001
0.00182684
0.00182479
0.00204874
0.00205912
0.00207597
0.00209589
0.00208979
0.00176669
0.00177188
0.00177871
0.0017821
0.00178359
0.00182793
0.00182473
0.00181717
0.00180198
0.00178349
0.00180373
0.00182272
0.00184111
0.00185323
0.00185973
0.00195509
0.00194794
0.00193563
0.00191393
0.0018789
0.00178793
0.00183454
0.00185825
0.00187008
0.00187606
0.00213704
0.00213165
0.00212297
0.00210065
0.00202612
0.00219536
0.00223152
0.00223117
0.0022284
0.00222786
0.00210794
0.00211151
0.00211438
0.00210789
0.00203399
0.0020418
0.00205406
0.00206582
0.00212684
0.00211102
0.00209355
0.0020781
0.00208614
0.00210153
0.00210547
0.00210645
0.00234118
0.00233751
0.0023335
0.00231703
0.00221161
0.00200368
0.00206781
0.00206189
0.00191276
0.00188817
0.00206854
0.00205979
0.00188095
0.00195129
0.00211326
0.00214531
0.00215917
0.0021659
0.00217276
0.00204801
0.00203656
0.00201783
0.00199664
0.00228697
0.00231079
0.00231124
0.00231152
0.0021948
0.00218935
0.00218074
0.00216485
0.00214237
0.00229856
0.00229482
0.00229558
0.00228887
0.002285
0.00230228
0.00229769
0.00229208
0.00228032
0.00233794
0.00204276
0.00205955
0.0020632
0.00206804
0.00207577
0.00208322
0.00217095
0.00217238
0.00217232
0.00215632
0.00206688
0.00209339
0.00210367
0.00211121
0.00205395
0.00204544
0.00203601
0.00202571
0.00199512
0.00190188
0.00183646
0.00205699
0.0019962
0.00200924
0.00200968
0.00193083
0.00191671
0.00191157
0.00207572
0.00199377
0.00189949
0.00191723
0.00197386
0.00189403
0.00196268
0.00194403
0.0019176
0.00164484
0.0012787
0.000906063
0.000638552
0.000539004
0.000598879
0.000732259
0.000835415
0.000844334
0.00076089
0.000631611
0.00055033
0.000482069
0.000449398
0.00039302
0.000415186
0.000401272
0.000394017
0.000387317
0.000381834
0.000449125
0.000450162
0.000453799
0.000464566
0.000498443
0.000542305
0.00053022
0.000523914
0.000515365
0.000506705
0.000651971
0.000654546
0.000660857
0.000676837
0.000704651
0.000904961
0.000861109
0.000840539
0.000831773
0.000827545
0.000939884
0.000947393
0.000953509
0.000955729
0.000968496
0.00130181
0.00126648
0.00124659
0.00124029
0.0012399
0.00143948
0.00144216
0.00144902
0.0014706
0.0015413
0.00128346
0.00129091
0.001291
0.00129007
0.00128956
0.00132414
0.00132849
0.00133177
0.00133506
0.00135785
0.0017284
0.00171076
0.00168907
0.00167569
0.00166969
0.00173159
0.00173431
0.00174125
0.00176029
0.00181952
0.00145746
0.00146746
0.00146947
0.00146989
0.00146921
0.00157299
0.00157587
0.00157953
0.00158508
0.00160282
0.00185763
0.00185736
0.001838
0.00182283
0.00181489
0.00183531
0.00184275
0.00185716
0.00187967
0.00189125
0.0019755
0.00194614
0.00192631
0.00191474
0.00190896
0.00161467
0.00161299
0.00160674
0.00159402
0.00158556
0.00166456
0.00167274
0.00168302
0.00168956
0.00169212
0.00181721
0.00181434
0.00181051
0.00180602
0.00179129
0.00190417
0.001932
0.00193733
0.00193863
0.00193917
0.00206196
0.00206131
0.00205965
0.00205293
0.00201962
0.00199773
0.00202632
0.00203263
0.00203464
0.00203481
0.00207295
0.00206451
0.00205015
0.00202546
0.00198015
0.00205715
0.00206267
0.00207289
0.00208122
0.00208629
0.0022296
0.00223466
0.0022421
0.00224248
0.00218649
0.00209392
0.00218429
0.00219412
0.00219236
0.00219053
0.00210225
0.00209801
0.0020919
0.00208261
0.0020323
0.00214335
0.00214764
0.00214449
0.002143
0.00214577
0.00212654
0.00198578
0.00200826
0.00197256
0.0020669
0.00220019
0.00183622
0.00200644
0.00221349
0.00186429
0.00220571
0.00293231
0.00205782
0.0021869
0.00227267
0.00255815
0.0020247
0.00164763
0.00114166
0.000716525
0.000436617
0.000373793
0.000471225
0.000622518
0.000720204
0.000702779
0.000601742
0.000485716
0.000396895
0.0003668
0.000327378
0.000428579
0.000432647
0.000429497
0.000426163
0.000424177
0.000325931
0.000332421
0.000336741
0.000337321
0.000343343
0.000589195
0.00058167
0.000564133
0.000549687
0.00054072
0.000781608
0.000791072
0.000803535
0.000815546
0.000832626
0.000768091
0.000751372
0.000749243
0.000745137
0.000739727
0.00113491
0.00114568
0.00116489
0.00119334
0.00122189
0.00138378
0.00135029
0.00133441
0.00132238
0.00131424
0.00124782
0.00125139
0.00125487
0.00125898
0.00127934
0.00166033
0.0016395
0.00161358
0.00159643
0.00158741
0.00165752
0.00166343
0.00167308
0.00168669
0.00170581
0.00133566
0.00132294
0.00132687
0.00133223
0.00133543
0.00146088
0.00146072
0.00146037
0.00146078
0.00147275
0.00155207
0.00155564
0.00155445
0.00155145
0.00154888
0.00164425
0.00165253
0.00166138
0.00166079
0.00162592
0.00168788
0.00172298
0.00171965
0.00170799
0.00169656
0.00192682
0.00193429
0.00194567
0.00194919
0.00189638
0.001914
0.00194383
0.00194746
0.0019485
0.00194852
0.00197114
0.00196983
0.00196537
0.00195431
0.00190625
0.00204813
0.00209373
0.00210613
0.00211219
0.00211587
0.00220069
0.00220201
0.00220308
0.00219846
0.00215644
0.00222678
0.00224798
0.00225313
0.00225827
0.00226248
0.00234247
0.00234827
0.00235671
0.00235268
0.00226761
0.0020785
0.00204646
0.00205693
0.00207773
0.00209271
0.00239162
0.00238787
0.00238265
0.00237408
0.00232855
0.00228605
0.00227076
0.00227058
0.00227515
0.00227851
0.00225157
0.00225743
0.00226433
0.00225691
0.00218162
0.00202794
0.00214207
0.00215214
0.0021453
0.00213854
0.00227096
0.00227736
0.00228856
0.00228274
0.00215121
0.00189707
0.00192289
0.00193502
0.00194342
0.0019485
0.00208857
0.00209238
0.00209468
0.00208498
0.00204561
0.00204305
0.00194433
0.00193765
0.00204488
0.00206075
0.00192719
0.00198489
0.00199512
0.00199907
0.0020005
0.00206872
0.00207031
0.00207224
0.00207086
0.00201235
0.00197865
0.00200549
0.00195368
0.00192044
0.00191235
0.00194578
0.00196148
0.00196654
0.00190636
0.00196117
0.00199774
0.00197567
0.00197588
0.00218784
0.00207065
0.00201908
0.00207144
0.00202025
0.00199509
0.00195768
0.00187919
0.00190614
0.00197194
0.00202074
0.00202525
0.00206481
0.00204314
0.00200203
0.00198559
0.00197545
0.00198548
0.00204371
0.00210234
0.00205176
0.00202332
0.00198383
0.00193785
0.00191953
0.0019828
0.00201405
0.00200687
0.00196044
0.00198674
0.00198838
0.00194169
0.00193662
0.00197875
0.00194981
0.0019234
0.00191562
0.0019522
0.00194791
0.00188607
0.00188596
0.00197452
0.00191975
0.00186366
0.00193188
0.00194333
0.00197973
0.00201956
0.0019938
0.00196233
0.001936
0.00196401
0.0019875
0.00192871
0.00195409
0.00200057
0.00194856
0.00195605
0.00194298
0.00195172
0.00204413
0.00196096
0.00198266
0.00207992
0.00187371
0.00184346
0.00166096
0.00144296
0.00117801
0.000924962
0.00083746
0.000880898
0.00117241
0.00126292
0.00153271
0.00166227
0.00168422
0.00169554
0.00170405
0.00199173
0.00200699
0.00202419
0.00203309
0.0020071
0.00145872
0.00150514
0.00151303
0.00151353
0.0015104
0.00213264
0.00215244
0.00217792
0.00219195
0.00217824
0.00159413
0.00154537
0.0015403
0.00154316
0.00154381
0.00217132
0.00219113
0.00222077
0.00225269
0.00224577
0.00224932
0.00229547
0.00229513
0.00228306
0.00227186
0.00167776
0.00167969
0.00167767
0.00167267
0.00166213
0.00163958
0.00166607
0.00166259
0.00165902
0.00165598
0.00203005
0.00203911
0.00205204
0.00207318
0.00215626
0.00169833
0.00164251
0.00163754
0.00163968
0.00163896
0.00178494
0.00178701
0.0017904
0.00180019
0.00184502
0.00220028
0.0021158
0.00208813
0.00207616
0.00206927
0.00199361
0.00200115
0.00201552
0.00204309
0.00207663
0.0021503
0.00207067
0.00204912
0.00204215
0.00203919
0.00200015
0.00200383
0.002014
0.00203722
0.00207998
0.00205109
0.00200822
0.00200269
0.00200485
0.00200756
0.00175872
0.00171717
0.00171258
0.00171277
0.00171157
0.00178462
0.00178526
0.0017848
0.00178712
0.00181315
0.00206255
0.0020317
0.00201144
0.00200257
0.00200004
0.00197874
0.00197607
0.0019761
0.00199052
0.00205826
0.00208053
0.00207912
0.00208264
0.00208303
0.00208203
0.00212376
0.00212368
0.00212326
0.00212047
0.00211237
0.00220446
0.00211816
0.00195282
0.00173741
0.00163343
0.00162906
0.00163149
0.00162879
0.00162436
0.00184372
0.00184465
0.00184844
0.00186523
0.00190019
0.00189937
0.00188061
0.00187319
0.00187399
0.00187636
0.00168659
0.00169193
0.00169689
0.00169318
0.00168045
0.00150721
0.00148672
0.00147481
0.00147088
0.00146981
0.00123211
0.0012319
0.00123543
0.00125023
0.00128074
0.00123574
0.00121805
0.00121202
0.00121224
0.00121371
0.00107504
0.00108392
0.00109302
0.00109568
0.0010905
0.00114456
0.0011769
0.00117663
0.00116562
0.00115458
0.000816705
0.000813803
0.000812188
0.000816471
0.000833812
0.000846634
0.000827646
0.000827927
0.000832633
0.000836315
0.000788515
0.000790582
0.000793599
0.000798961
0.000815115
0.000834032
0.000843645
0.000837087
0.000826153
0.000817279
0.000588506
0.000586291
0.000584278
0.000585825
0.000598716
0.000573263
0.000538758
0.000533059
0.000533662
0.000534826
0.000535307
0.000538612
0.000542666
0.000547482
0.000560611
0.000551703
0.000543546
0.000535732
0.000526597
0.000518769
0.000566288
0.000566496
0.000568828
0.000578688
0.0006109
0.000737307
0.000704467
0.000693974
0.00069209
0.000691995
0.00060655
0.000531212
0.000566643
0.000548801
0.000541267
0.000535884
0.000531859
0.000451295
0.00044547
0.000472353
0.000475155
0.000471982
0.000466279
0.000461172
0.000454973
0.000453305
0.000452998
0.000458536
0.000487134
0.000443062
0.000440136
0.000437484
0.000433326
0.000429623
0.000370997
0.00037062
0.000370719
0.000373069
0.00038429
0.000332381
0.000322317
0.000319698
0.000321253
0.000323112
0.000364464
0.000366468
0.000370301
0.000380465
0.000406944
0.000431695
0.000422281
0.000418324
0.000411779
0.000405182
0.000548009
0.000551847
0.000560423
0.000577351
0.000602576
0.000815905
0.000768969