/*--------------------------------*- C++ -*----------------------------------*\
  =========                 |
  \\      /  F ield         | OpenFOAM: The Open Source CFD Toolbox
   \\    /   O peration     | Website:  https://openfoam.org
    \\  /    A nd           | Version:  7
     \\/     M anipulation  |
\*---------------------------------------------------------------------------*/
FoamFile
{
    version     2.0;
    format      ascii;
    class       volVectorField;
    location    "9.25";
    object      wallShearStress;
}
// * * * * * * * * * * * * * * * * * * * * * * * * * * * * * * * * * * * * * //

dimensions      [0 2 -2 0 0 0 0];

internalField   uniform (0 0 0);

boundaryField
{
    outlet1
    {
        type            calculated;
        value           uniform (0 0 0);
    }
    Wall
    {
        type            calculated;
        value           nonuniform List<vector> 
40276
(
(0.000427279 4.9471e-05 0.000167991)
(-0.000186867 -8.61672e-06 0.000415402)
(-0.000190596 -7.85951e-06 0.000407353)
(9.07933e-05 -5.33299e-06 0.000156223)
(7.85826e-05 2.48813e-05 0.000155689)
(8.35715e-05 5.88556e-05 0.000162212)
(9.83117e-05 4.13651e-05 0.000170359)
(0.000130919 3.71124e-05 0.000182158)
(0.000101268 2.62163e-05 0.000163985)
(9.85669e-05 6.14852e-06 0.000169565)
(0.000384565 3.81344e-05 0.000407395)
(0.000464836 1.54874e-05 0.000441628)
(0.000585122 3.98586e-05 0.000940536)
(0.000562857 3.79937e-05 0.000870862)
(0.000487376 -1.57445e-05 0.000334277)
(0.000435613 1.54406e-06 0.000363434)
(0.000393995 2.03e-05 5.64632e-05)
(0.00035204 2.33723e-05 2.30294e-05)
(-0.000113405 -1.15869e-05 -0.000175202)
(-0.000122673 -3.76771e-05 -0.000195347)
(-0.000155843 3.93468e-05 0.000211151)
(-0.000186961 4.44001e-05 0.000197986)
(-0.000119974 3.22368e-05 6.7679e-05)
(-0.000138832 2.9645e-05 6.3991e-05)
(-0.000100006 2.36983e-05 4.31457e-05)
(-0.000112251 2.47433e-05 3.73667e-05)
(-0.0001239 4.10623e-05 2.19427e-05)
(-0.000121356 4.14833e-05 1.60581e-05)
(-0.000182153 5.8818e-05 3.29148e-05)
(-0.000163519 5.0478e-05 2.39906e-05)
(-0.000120442 3.92563e-05 7.08762e-05)
(-0.000134757 4.70473e-05 7.82503e-05)
(-5.25581e-05 -3.17291e-06 0.000159636)
(-4.68015e-05 -4.86079e-06 0.000148365)
(-6.28506e-05 1.02875e-05 8.13264e-06)
(-6.16955e-05 1.16837e-05 7.67682e-06)
(0.000565489 6.66467e-05 0.000217253)
(0.00061484 4.87798e-05 0.000241103)
(0.00105377 0.000255079 0.000406838)
(0.00119073 0.000326738 0.000427902)
(0.000989824 6.4184e-05 0.00016751)
(0.000951462 3.66623e-05 0.000194762)
(-5.07092e-05 -1.41913e-05 -0.000382329)
(-3.08685e-05 -1.07343e-05 -0.000346038)
(-5.35646e-05 -2.16904e-06 -0.000347786)
(-4.50661e-05 -6.08796e-06 -0.000285207)
(-7.334e-05 -4.06673e-07 -0.000293256)
(-5.60287e-05 -3.15064e-06 -0.00023614)
(-6.45375e-05 -8.32719e-07 -0.000202709)
(-6.26221e-05 1.00488e-06 -0.000167944)
(-5.12136e-05 -1.12703e-06 -0.000137036)
(-6.30298e-05 1.29928e-06 -0.000143829)
(-5.42827e-05 -1.66956e-07 -0.000114152)
(-5.73865e-05 2.11715e-06 -0.000115519)
(0.000441765 8.14401e-05 0.000262019)
(0.000460047 9.54807e-05 0.000231212)
(-1.66611e-05 1.29354e-05 0.000130042)
(6.41331e-05 2.2027e-05 0.00019113)
(-9.49984e-06 8.33003e-06 0.000132622)
(-0.000448352 -0.000151929 -0.000429021)
(-0.00047769 -0.000126589 -0.000439742)
(1.90666e-05 3.45694e-05 0.000291617)
(-1.27958e-05 -1.18119e-05 0.000225403)
(1.06827e-05 -1.07308e-06 -4.74886e-05)
(1.35142e-05 2.91509e-06 -4.45049e-05)
(6.70725e-06 -1.76012e-08 -4.34436e-05)
(2.04091e-06 -2.73623e-06 -4.19172e-05)
(1.16922e-05 5.42605e-08 -4.44202e-05)
(-0.000115592 -1.90844e-05 -0.000105207)
(-0.00012743 -8.69906e-06 -0.000114218)
(-5.17523e-05 4.11393e-06 -9.37103e-05)
(-5.27129e-05 1.06384e-07 -9.54486e-05)
(-1.71831e-05 1.28565e-06 -1.73128e-05)
(-1.71659e-05 1.30345e-06 -1.71444e-05)
(-1.55615e-05 1.3573e-06 -1.68726e-05)
(-1.47014e-05 1.65845e-06 -1.62514e-05)
(-1.67762e-05 7.57532e-07 -1.66908e-05)
(2.40493e-05 -1.77836e-06 -5.23496e-06)
(2.08694e-05 -1.82437e-06 -9.11224e-06)
(-1.18431e-06 4.43659e-06 3.09187e-07)
(-4.68765e-07 -2.33733e-07 2.31246e-07)
(7.52859e-06 -1.17522e-06 -3.92042e-07)
(1.83889e-05 -2.4433e-08 1.26316e-05)
(1.78242e-05 2.3075e-07 1.2961e-05)
(2.85065e-05 -1.33509e-06 2.00669e-05)
(5.86345e-06 5.09371e-07 -3.85807e-05)
(1.42174e-06 -1.89707e-06 -3.69042e-05)
(4.66368e-06 9.79463e-07 -3.38373e-05)
(2.57267e-05 -1.57586e-06 1.85975e-05)
(2.45384e-05 -1.13255e-06 1.76816e-05)
(2.10372e-05 -5.7433e-07 1.56414e-05)
(-4.42229e-05 -4.54635e-06 -4.00236e-05)
(3.97805e-07 -1.18524e-06 -3.24426e-05)
(3.49364e-06 1.29511e-06 -2.97954e-05)
(-3.26178e-07 -5.97892e-07 -2.87183e-05)
(-1.01925e-06 -3.42485e-07 -2.52733e-05)
(-1.64714e-06 5.32646e-08 -2.22836e-05)
(-2.48804e-06 2.18994e-07 -2.0228e-05)
(-5.88546e-06 -3.35347e-07 -1.63476e-05)
(-6.54964e-06 -1.26511e-07 -1.54351e-05)
(-7.38775e-06 9.82062e-10 -1.50512e-05)
(-1.03649e-05 -2.99496e-07 -1.50076e-05)
(-1.05771e-05 -2.19153e-07 -1.53723e-05)
(-4.96568e-05 -9.67573e-07 -4.35618e-05)
(-1.0844e-05 -3.08152e-08 -1.61947e-05)
(-1.88725e-05 -3.44263e-06 -2.3035e-05)
(-1.57344e-05 -3.42739e-06 -1.84136e-05)
(-1.06819e-05 -1.2819e-07 -1.67465e-05)
(-1.05841e-05 3.80302e-08 -1.77509e-05)
(-1.02016e-05 -5.76759e-07 -1.80667e-05)
(-1.03838e-05 4.14418e-08 -1.91851e-05)
(-9.84143e-06 -6.36424e-07 -1.99321e-05)
(-9.24264e-06 -2.81996e-07 -2.03383e-05)
(-9.0039e-06 -1.08567e-06 -2.1865e-05)
(-8.66368e-06 -1.71057e-06 -2.04904e-05)
(4.11112e-06 -8.97421e-07 -2.65273e-05)
(3.99687e-06 -2.90003e-06 -2.78513e-05)
(2.55347e-06 -2.90972e-06 -2.62754e-05)
(-0.000277199 -6.29479e-05 0.000486799)
(-0.00028027 -6.1449e-05 0.000441388)
(-1.53186e-05 -1.24494e-06 5.37468e-06)
(-1.2658e-05 -1.41356e-06 6.52353e-06)
(-4.1994e-05 -1.75167e-06 1.60712e-05)
(-3.64144e-05 -3.09212e-06 1.49643e-05)
(-4.38767e-06 -8.10852e-06 -5.42977e-06)
(-2.07764e-06 -7.99229e-06 -2.67043e-06)
(-0.000127326 2.51807e-05 0.000183825)
(-0.000110573 3.38879e-05 0.000156362)
(-0.000160162 -1.79169e-05 0.000274233)
(-0.00013994 -2.39838e-05 0.000236058)
(-0.000102778 -6.24597e-06 0.000172567)
(-8.99204e-05 -9.29684e-06 0.000148522)
(-0.000156023 9.35286e-05 0.000465873)
(-0.000216131 0.000169241 0.000650812)
(7.24922e-06 -1.18072e-05 0.000188431)
(-1.42475e-06 -4.5498e-06 0.000159249)
(-0.000102187 2.75881e-05 0.00019283)
(-5.58499e-05 1.35487e-06 0.000167264)
(-0.000179758 -5.75104e-05 0.000489846)
(-0.000179344 -4.07168e-05 0.000490583)
(-0.000179211 -4.55361e-05 0.000524944)
(-0.000194823 -2.18035e-05 0.000526392)
(-0.000559564 1.72205e-06 -0.000151334)
(-0.000642101 2.43814e-06 -0.000183501)
(-2.27552e-05 -7.96789e-05 9.95783e-06)
(-2.65493e-05 -7.89428e-05 1.19239e-05)
(-2.14364e-05 -4.38666e-05 6.54866e-05)
(-2.5201e-05 -5.36552e-05 8.18263e-05)
(-2.90421e-05 -5.25515e-05 6.60859e-05)
(-2.32112e-05 -4.04557e-05 5.37477e-05)
(-1.54685e-05 -8.61463e-05 8.48782e-06)
(-1.98958e-05 -9.83539e-05 6.53327e-06)
(-2.34945e-05 -8.34772e-05 8.81935e-06)
(-2.18822e-05 -8.64848e-05 9.21273e-06)
(-2.31358e-05 -0.000128636 -1.56103e-05)
(-1.99741e-05 -0.000111411 -1.41258e-05)
(-7.64285e-06 -5.66218e-05 -3.31689e-06)
(-9.87873e-06 -5.05372e-05 -4.75771e-06)
(-6.09903e-05 -3.12526e-05 9.45625e-05)
(-5.57782e-05 -3.30782e-05 8.93625e-05)
(9.05783e-05 3.79e-06 -0.000233555)
(9.87272e-05 -5.14142e-06 -0.000218267)
(-0.000137142 -5.95203e-05 -1.25071e-05)
(-0.000135966 -6.65073e-05 -1.47015e-05)
(-0.000297896 -4.79578e-05 0.000147156)
(-0.000319753 -5.20864e-05 0.000138621)
(-0.000291617 -7.47156e-05 -2.60502e-05)
(-0.000285005 -6.19229e-05 -3.5259e-05)
(-0.00017439 0.000192782 0.000237433)
(-0.000168306 0.000241326 0.000220561)
(-0.00024891 -4.48285e-05 1.31631e-05)
(-0.000131095 -4.67465e-05 -1.84818e-05)
(-0.000206679 -7.74286e-05 7.46524e-05)
(-0.000178073 -7.58499e-05 6.31285e-05)
(-0.000227553 -5.18807e-05 5.88062e-05)
(-6.74108e-05 -4.22655e-05 -7.10719e-06)
(-3.91056e-05 -2.09132e-05 6.05055e-05)
(-3.2226e-05 -1.93912e-05 5.58595e-05)
(0.000539646 -0.000209937 0.000410017)
(0.000496639 -0.000185346 0.000342892)
(0.000475234 -0.000262431 0.000227151)
(0.000451181 -0.000195643 0.000257636)
(0.000459205 -0.000225728 0.00025646)
(0.000227116 -0.000142201 0.000184946)
(0.000321194 -0.000200114 0.000216035)
(0.000251151 -0.000144792 0.000199786)
(0.000418926 -0.000186521 0.000346424)
(0.000440369 -0.000228292 0.00032937)
(0.000436296 -0.000224756 0.000287465)
(0.000334416 -0.000219815 0.000188752)
(0.000438633 -0.000271578 0.000188711)
(0.000365462 -0.000198441 0.00024289)
(0.000135765 -6.53887e-05 0.000159788)
(0.000220644 -0.000143478 0.000184644)
(0.000169718 -8.19897e-05 0.000179647)
(0.000125473 -4.98446e-05 0.000163894)
(7.27626e-05 5.0537e-05 0.000155586)
(0.000289042 0.000113028 3.94175e-05)
(0.000350817 0.000112126 9.17228e-05)
(0.000299845 7.48098e-05 0.000104633)
(0.000317584 5.94212e-05 4.3146e-05)
(0.000378393 6.33334e-05 9.53025e-05)
(0.000341852 9.99619e-05 8.52835e-05)
(0.000306934 7.46703e-05 6.23869e-05)
(9.68825e-05 5.56031e-05 8.183e-05)
(0.000114464 6.62437e-05 8.17283e-05)
(8.9181e-05 1.39627e-05 0.000134738)
(9.36297e-05 2.00444e-05 0.000133141)
(0.000106053 1.19787e-05 0.000156477)
(8.78013e-05 2.51648e-06 0.000141121)
(9.949e-05 3.66912e-05 0.000130209)
(7.99422e-05 3.71786e-05 9.8831e-05)
(7.85942e-05 4.09431e-05 7.18422e-05)
(7.24485e-05 2.18414e-05 8.92296e-05)
(6.56318e-05 1.04405e-05 0.000104441)
(5.12241e-05 2.91917e-06 8.28565e-05)
(6.47175e-05 -2.05528e-06 0.00010092)
(5.57348e-05 1.90196e-05 6.94836e-05)
(4.86126e-05 1.70254e-05 5.94916e-05)
(5.2051e-05 1.58564e-05 6.76717e-05)
(0.000154657 9.41733e-05 4.08942e-05)
(0.000186956 0.000104106 6.09049e-05)
(0.00019131 9.39597e-05 7.2186e-05)
(0.000183289 8.87787e-05 4.10383e-05)
(0.00011354 6.83951e-05 6.95395e-05)
(0.000131305 7.76962e-05 4.50862e-05)
(0.000140518 8.33584e-05 2.52236e-05)
(0.00014328 7.09276e-05 3.70807e-05)
(0.000124784 6.89349e-05 4.1335e-05)
(0.00027267 0.000111954 3.20089e-05)
(0.000224734 0.000106534 2.95014e-05)
(0.000289633 0.000102753 4.6382e-05)
(0.00026339 7.45726e-05 3.15711e-05)
(0.000235508 9.84551e-05 1.79682e-05)
(0.000215596 7.40287e-05 2.42114e-05)
(8.05646e-05 4.94416e-05 4.85972e-05)
(8.70225e-05 4.71118e-05 5.49025e-05)
(6.92978e-05 3.56147e-05 6.11693e-05)
(0.000106745 6.62877e-05 4.23623e-05)
(5.98974e-05 2.93231e-05 5.3886e-05)
(7.20227e-05 4.51515e-05 3.291e-05)
(0.000118341 6.48041e-05 5.24634e-05)
(0.000155309 8.11986e-05 2.09999e-05)
(7.7426e-05 5.24446e-05 6.36389e-06)
(8.9868e-05 4.96679e-05 2.46122e-05)
(7.87871e-05 5.15224e-05 1.87006e-05)
(0.000141924 8.42223e-05 4.41209e-06)
(0.000173324 8.76679e-05 -1.75763e-05)
(0.000156807 6.10607e-05 2.0341e-05)
(0.000152209 7.53564e-05 7.49544e-06)
(0.000315444 2.8367e-05 0.000551532)
(0.000353543 5.7289e-05 0.000641117)
(0.000321453 -1.38089e-06 0.000573419)
(0.000333158 2.89923e-05 0.000589603)
(0.000352947 9.86441e-05 0.000391194)
(0.000380905 0.000103652 0.000464097)
(0.00027316 9.38309e-05 0.000381844)
(0.000297785 8.80015e-05 0.000437)
(0.000294673 0.000106093 0.000439607)
(0.00027602 8.77679e-05 0.000451831)
(0.000391003 0.000156563 0.000503968)
(0.000327645 0.000132366 0.00037803)
(0.000372503 0.00013776 0.000470767)
(0.000237132 8.98445e-05 0.000383497)
(0.000317526 0.000115511 0.000478949)
(0.00040356 0.000128968 0.000379893)
(0.000363076 0.000134488 0.000449575)
(0.000355502 0.000131001 0.000449969)
(0.000410616 0.000135738 0.000560627)
(0.000426026 0.000169735 0.000495401)
(0.00046922 0.00018376 0.000492786)
(0.000462126 0.000192232 0.000465897)
(0.000451241 0.000159227 0.000556525)
(0.000435732 0.000163808 0.00055638)
(0.000394323 7.20908e-05 0.000459307)
(0.000505317 7.75377e-05 0.000490822)
(0.000387477 9.11506e-05 0.000472738)
(0.000300852 9.3455e-05 0.00037067)
(0.00037961 8.9925e-05 0.00046223)
(0.0004148 6.98693e-05 0.000402848)
(0.000311286 5.52348e-05 0.000302961)
(0.000336788 0.000101067 0.000364199)
(0.000360684 8.30203e-05 0.000352579)
(0.000364984 9.3085e-05 0.00034459)
(0.000487265 -4.16149e-05 0.00042592)
(0.000501289 -5.93531e-05 0.000423577)
(0.000512002 -0.000136093 0.000412129)
(0.000401212 -6.20577e-05 0.000368051)
(0.000482346 -0.00011675 0.000324529)
(0.000379221 -9.24298e-06 0.000338858)
(0.00052603 -0.000126737 0.000353441)
(0.000361288 -2.77128e-05 0.000291955)
(0.000465444 -9.70976e-05 0.000284729)
(0.000543018 -0.000204704 0.000270791)
(0.000340744 5.74233e-05 0.000353981)
(0.000340331 8.54243e-05 0.000372362)
(0.000379409 2.4765e-05 0.000310909)
(0.000377318 6.39157e-05 0.000328494)
(0.00039463 0.00014189 0.000375713)
(0.000429435 0.000148119 0.000508424)
(0.000427075 0.000145983 0.000455585)
(0.000441019 0.000126885 0.000369997)
(0.00049686 0.000162002 0.000414008)
(0.000496933 0.000190103 0.000522451)
(0.000447592 0.000158709 0.000521806)
(0.000472612 0.000156045 0.000550669)
(0.000471349 0.000172313 0.000397289)
(0.000451331 0.0001588 0.000523152)
(0.000451518 0.000163992 0.00052169)
(0.000572945 0.000208637 0.00065636)
(0.000546151 0.000195907 0.000512082)
(0.000401186 0.000116457 0.000368306)
(0.000569055 0.000179265 0.000420379)
(0.000451656 0.000104251 0.000392599)
(0.000580732 0.000146719 0.000398958)
(0.00051329 0.000178018 0.000439149)
(0.000517816 0.000162787 0.000510631)
(0.000694397 0.000261657 0.000523507)
(0.000549902 0.000186758 0.000433303)
(0.000524997 0.000159463 0.000456425)
(0.000734647 0.000258514 0.000483811)
(0.000568428 0.000245858 0.000484077)
(0.000604803 0.000209432 0.000591412)
(0.00056002 0.000182348 0.000624584)
(0.000662967 0.000226225 0.000621027)
(0.000660297 0.000231402 0.000599594)
(0.000350453 0.000140768 0.00045598)
(0.000341911 0.000131472 0.000450001)
(0.000235127 7.08038e-05 0.000425272)
(0.000338868 0.000128879 0.000488253)
(0.000426352 0.000121682 0.000632048)
(0.000390005 0.000112105 0.000580184)
(0.000378749 0.000146956 0.000492098)
(0.000398261 0.000154948 0.000510961)
(0.000381365 0.000147948 0.000560312)
(0.000362767 6.26347e-05 0.000648499)
(0.000313431 4.34591e-05 0.000580204)
(0.000367939 0.000109073 0.000608116)
(0.000350695 9.56198e-05 0.000603737)
(0.000313739 4.28129e-05 0.000507791)
(0.000424809 0.000171055 0.000538477)
(0.000449668 0.000139435 0.000628218)
(0.00040116 0.000122881 0.0006114)
(0.000386755 -4.87564e-06 0.000638474)
(0.000476284 0.000144835 0.000711526)
(0.000358106 6.01926e-05 0.000604785)
(0.000464014 0.000186974 0.000524163)
(0.000502888 0.00019578 0.000562393)
(0.000447865 0.000141644 0.000624487)
(0.000438764 0.00017627 0.000559827)
(0.000507032 0.000205287 0.000563428)
(0.000503717 0.000127825 0.000695414)
(0.00051408 0.000145323 0.000783008)
(0.000409827 4.84416e-05 0.000674768)
(0.000375936 4.63353e-05 0.000615392)
(0.000407882 7.81642e-05 0.000649428)
(0.000463209 0.000130272 0.00069046)
(0.000395501 7.48867e-05 0.000607727)
(0.000514535 0.000220161 0.000602443)
(0.000513204 0.000106109 0.000750448)
(0.000593195 0.000191922 0.000853007)
(0.000282475 1.16968e-05 0.000493228)
(0.000293652 5.54967e-05 0.000501962)
(0.000358227 0.000131888 0.000560539)
(0.000377014 8.38233e-05 0.000638584)
(0.000355335 2.61956e-05 0.000589253)
(0.000438213 9.36548e-05 0.000695993)
(0.000336357 -1.22487e-05 0.000568787)
(0.000338361 4.03047e-05 0.000559928)
(0.000431775 0.000143447 0.000678826)
(0.00036041 4.58645e-05 0.000613327)
(0.000315287 3.7071e-05 0.000529081)
(0.000383668 -4.75825e-06 0.00063307)
(0.000333282 4.28966e-05 0.000559738)
(0.000354342 4.5932e-05 0.000584293)
(0.000430727 4.2769e-05 0.000703688)
(0.000336603 8.74548e-05 0.000578845)
(0.000335459 5.98875e-05 0.000565519)
(0.000428011 -5.76973e-05 0.000656154)
(0.000479511 0.000129221 0.000754936)
(0.000412506 -2.13633e-05 0.000694475)
(0.000524743 6.55216e-05 0.000858087)
(0.000400643 1.27548e-05 0.000669373)
(0.000420851 3.55138e-05 0.0006857)
(0.000530184 0.000159982 0.000769983)
(0.000425039 5.36074e-05 0.000679601)
(0.000485828 3.51492e-05 0.000773548)
(0.00052347 4.50865e-05 0.000857833)
(0.00053358 1.92601e-05 0.000856586)
(0.000420871 3.5442e-05 0.000674581)
(0.000475964 4.13775e-05 0.000755224)
(0.00042558 1.47913e-05 0.000675864)
(0.000485551 4.89827e-05 0.000768373)
(0.000548079 0.000176682 0.00068465)
(0.000536361 0.000193311 0.000612216)
(-2.10021e-05 -4.91035e-05 0.000160191)
(0.000566909 0.00015504 0.000775124)
(0.000493152 0.000140651 0.000663599)
(0.000616224 0.000228313 0.000663525)
(0.000575422 0.000222589 0.000599865)
(0.000610664 0.00021545 0.000673493)
(-2.52592e-05 -4.87788e-05 0.000159631)
(0.000544443 0.000173816 0.000710208)
(0.00056448 0.000209347 0.000657205)
(0.000611764 0.000230258 0.000685017)
(0.000556436 0.00016901 0.000764563)
(0.000625721 0.000179062 0.000912819)
(-2.29006e-05 -4.85613e-05 0.000156912)
(0.000469549 7.32718e-05 0.000727876)
(0.000433891 6.35092e-05 0.000710784)
(0.000467678 9.75795e-05 0.000705893)
(0.000527208 5.99648e-05 0.000796268)
(0.000464581 0.000107691 0.000703001)
(-2.537e-05 -3.80748e-05 0.000159924)
(0.000576552 0.000236975 0.000662981)
(0.000595055 0.000121966 0.000837332)
(0.000682354 0.000217316 0.000930255)
(0.000656854 0.000219891 0.000773249)
(0.000715472 0.000252798 0.000647675)
(0.000772151 0.000285099 0.000655944)
(0.000646442 0.000191323 0.000833063)
(0.000604926 0.000176178 0.000745321)
(0.000634151 0.000258116 0.000626592)
(0.000667896 0.000237748 0.000678597)
(0.000642479 0.000204207 0.00075879)
(0.000712128 0.000245682 0.000809463)
(0.000737108 0.000283577 0.000775778)
(0.000657837 0.000205048 0.000836483)
(0.0006851 0.000172096 0.000940604)
(0.000562117 0.000138279 0.000783024)
(0.000626008 0.000139834 0.00097398)
(0.000509573 0.000105408 0.000751746)
(0.000587274 8.09887e-05 0.000888654)
(0.000729947 0.000241495 0.000925041)
(0.000606225 0.000196823 0.000765337)
(0.00064489 0.000168706 0.0009203)
(0.000536784 8.96505e-05 0.000866313)
(0.000556756 0.00015042 0.000787522)
(0.000728109 0.000131867 0.00102228)
(0.000640761 0.000146438 0.000994738)
(0.000591349 6.58058e-05 0.000949539)
(0.000592777 1.96233e-05 0.000944175)
(0.000474826 2.92586e-05 0.00078815)
(0.000467439 6.59523e-05 0.000733692)
(0.000602079 0.000119639 0.0008715)
(0.000614357 0.000126221 0.000960243)
(0.000577433 2.73601e-05 0.000904719)
(0.000593185 3.78515e-05 0.000934373)
(0.000602568 -3.99096e-05 0.000936527)
(0.000584277 3.83514e-05 0.000894386)
(0.000668838 0.00013181 0.000971278)
(-3.13426e-05 -4.31724e-05 0.000168308)
(0.00050079 -2.6369e-06 0.000820579)
(0.000455794 5.64905e-05 0.000717995)
(0.000649171 0.000149468 0.000956745)
(0.00067547 0.000189347 0.00101268)
(0.000564692 -2.05704e-06 0.000943953)
(0.000702348 6.2021e-05 0.00110952)
(0.000525739 4.05456e-05 0.000827406)
(0.000649384 2.89558e-05 0.000996187)
(0.000519009 5.12151e-05 0.000821199)
(0.000500015 -2.00536e-05 0.000761449)
(0.000642446 -9.08366e-05 0.000952477)
(0.000687564 3.10408e-05 0.00109002)
(0.000688448 -5.06467e-07 0.00107911)
(0.000368377 -5.07801e-05 0.000536274)
(0.000290364 2.01551e-05 0.000450726)
(0.000325281 9.90583e-06 0.000467468)
(0.000314798 1.01084e-05 0.000482072)
(0.000226394 4.10544e-05 0.000405008)
(0.000300812 2.83362e-05 0.000466349)
(0.000384624 3.21281e-06 0.000500278)
(0.000301642 4.69327e-05 0.000471683)
(0.000350158 4.502e-05 0.00062212)
(0.000351826 6.21813e-05 0.000596765)
(-2.31134e-05 -4.18137e-05 0.000153491)
(-2.67808e-05 -4.38458e-05 0.000160388)
(-2.47816e-05 -4.05135e-05 0.000148571)
(-2.62639e-05 -3.68359e-05 0.000149433)
(0.000392978 3.32776e-05 0.000614959)
(0.000355608 7.56675e-05 0.000563921)
(0.000423652 1.48817e-05 0.000568685)
(0.000380208 3.22581e-05 0.000511441)
(0.000398207 -1.32759e-05 0.00051397)
(0.000394895 3.82351e-06 0.000485126)
(-2.9705e-05 -3.62256e-05 0.000154807)
(0.000417097 1.99101e-06 0.000537352)
(-3.50268e-05 -2.88987e-05 0.000164881)
(-3.01206e-05 -3.46077e-05 0.000155899)
(0.00044862 1.14477e-05 0.000222684)
(0.000446182 1.55088e-05 0.000271319)
(0.000424896 -1.48317e-05 0.000257496)
(-3.34602e-05 -3.44515e-05 0.000153925)
(-2.65127e-05 -3.83269e-05 0.00016455)
(-2.59088e-05 -4.18667e-05 0.000161095)
(-3.23116e-05 -3.37724e-05 0.000174986)
(-3.38517e-05 -4.23074e-05 0.000182588)
(-2.96956e-05 -3.0296e-05 0.000166601)
(-2.85598e-05 -2.62492e-05 0.000159406)
(-3.46569e-05 -3.4489e-05 0.000158994)
(0.000397273 6.34962e-05 7.0973e-05)
(0.000458409 6.41097e-05 0.000136907)
(0.00037706 3.25986e-05 7.92477e-05)
(0.000362414 6.64025e-05 5.68003e-05)
(0.000377657 4.66296e-05 8.04648e-05)
(0.000439244 1.0423e-05 0.000124746)
(0.000424847 1.18271e-05 0.000187087)
(0.00045082 -3.13348e-05 0.000195345)
(0.000444728 -2.15122e-07 0.000161415)
(0.000424868 -1.16042e-06 0.000203777)
(0.000413701 2.81607e-05 8.7542e-05)
(0.000431447 -9.44811e-06 9.41331e-05)
(0.000438525 -9.51122e-06 0.000387016)
(0.000416275 5.33076e-06 0.000421988)
(0.00040249 -2.42356e-06 0.000438828)
(0.000364486 5.45378e-06 0.000421974)
(0.000395873 3.21103e-06 0.00046357)
(0.000332965 2.48028e-05 0.000431121)
(0.000464618 -5.39865e-06 0.000415684)
(0.000470746 -2.62593e-05 0.000355782)
(0.00047502 -1.57685e-05 0.000341202)
(0.000415173 -5.12315e-06 0.000355267)
(0.000394118 -2.34042e-05 0.000444822)
(0.000409706 -1.52088e-05 0.000399788)
(0.000435674 2.22006e-05 0.0005162)
(0.000504229 -3.711e-05 0.000247727)
(0.000464418 -5.28061e-05 0.000332964)
(0.000475539 -5.40489e-05 0.000279838)
(0.000488933 -3.52246e-05 0.000353997)
(0.0005243 -8.89004e-05 0.000227626)
(0.000462675 -5.07817e-05 0.000385834)
(0.00042981 -4.44478e-05 0.000449243)
(0.000469937 -7.22927e-05 0.000430454)
(0.0004737 -1.61595e-05 0.000520484)
(0.000555511 -0.000104127 0.000408674)
(0.000513951 -0.000103669 0.00033689)
(0.000526368 -9.35728e-05 0.000273319)
(0.000510871 -7.03149e-05 0.00034328)
(0.000457972 -5.06589e-05 0.000176484)
(0.00045518 -4.14197e-05 0.000140529)
(0.000486934 -4.4708e-05 0.00018112)
(0.000334308 7.50763e-05 2.6966e-05)
(0.000344075 5.7093e-05 5.4035e-05)
(0.00029733 8.4033e-05 5.84609e-06)
(0.000321026 6.98426e-05 2.44616e-05)
(0.000365006 3.086e-05 4.61573e-05)
(0.000409953 -2.1538e-06 6.87559e-05)
(0.000336695 4.52863e-05 4.55211e-05)
(0.000228172 8.30296e-05 -4.74598e-06)
(0.000310016 8.96858e-05 1.20236e-05)
(0.000144653 7.11599e-05 3.66743e-05)
(0.000155188 6.7808e-05 1.28568e-05)
(0.000256887 9.73981e-05 6.3205e-06)
(0.000270849 7.19756e-05 4.14263e-05)
(0.000249025 3.98831e-05 -1.7852e-05)
(0.00029169 4.83963e-05 2.56506e-05)
(0.000350547 3.77524e-05 1.77835e-05)
(0.000246846 7.68886e-05 4.81436e-06)
(0.000236092 5.48756e-05 9.86204e-06)
(0.000313774 5.44151e-05 1.62549e-05)
(0.000588359 -0.000139297 0.000192427)
(0.000571245 -0.000142427 0.000347687)
(0.000558924 -0.000139825 0.000274591)
(0.000583492 -0.000128726 0.000352076)
(0.000466216 -3.09716e-05 0.000107893)
(0.000508481 -0.000104606 0.000172368)
(0.000468008 -5.49538e-05 0.000150045)
(0.000472253 -7.63316e-05 0.000152967)
(0.000422465 -1.81969e-05 6.55046e-05)
(0.000458079 -6.02175e-05 9.97746e-05)
(0.000544561 -0.000112044 0.000136646)
(0.000588708 -0.000131549 0.000170992)
(0.000616977 -0.000199925 0.000241689)
(0.000579183 -0.000138694 0.000163947)
(0.000554276 -0.000148062 0.000194073)
(0.00038657 1.61455e-05 3.98898e-05)
(0.000397761 -8.70962e-06 3.83722e-05)
(0.000427457 -5.84199e-05 9.51178e-05)
(0.000399231 -8.60104e-06 6.85522e-05)
(0.000415416 -3.65668e-05 5.70402e-05)
(0.00032821 3.33094e-05 4.40881e-05)
(0.000375226 -5.28989e-06 4.05994e-05)
(0.000553122 -0.000103961 9.80841e-05)
(0.00058398 -0.000159663 0.000115274)
(0.000602905 -0.000159485 0.000107258)
(0.000465703 -7.04825e-05 0.000108703)
(0.000428516 -3.28633e-05 0.000121889)
(0.000477795 -7.01402e-05 8.78379e-05)
(0.000308636 5.44058e-05 0.000527405)
(0.000327203 3.56212e-05 0.000544065)
(0.000370423 -1.53219e-05 0.000581162)
(0.000369118 7.25615e-06 0.000573172)
(0.000315162 7.38001e-05 0.000532415)
(0.00035741 7.42394e-06 0.000541332)
(0.000456454 -2.71052e-05 0.000680808)
(0.000327085 2.79744e-05 0.000534833)
(0.00035845 1.5173e-05 0.000554047)
(0.000415554 2.55089e-05 0.000639807)
(0.000406968 -1.35404e-05 0.000563838)
(0.000374105 1.06549e-05 0.00052771)
(0.000418778 1.62377e-05 0.000599567)
(0.000485703 -1.88965e-05 0.000689737)
(0.000492126 1.87922e-05 0.000810094)
(0.000369384 4.86097e-05 0.000591799)
(0.000423645 4.87377e-05 0.000685367)
(0.000405974 5.0573e-05 0.000679145)
(0.000434263 1.6646e-06 0.000666161)
(0.000576214 -6.9611e-05 0.000814114)
(0.000533 -0.000118188 0.000710435)
(0.000441661 6.14788e-05 0.000718304)
(0.000461834 -1.63944e-05 0.000679389)
(0.000414627 3.73762e-06 0.000582791)
(0.000468654 5.37632e-06 0.000666226)
(0.0004572 -4.23824e-05 0.000567894)
(0.000414747 -3.36927e-05 0.000492253)
(0.000465326 -1.5341e-05 0.00059156)
(-3.62026e-05 -2.99832e-05 0.000160873)
(0.000532107 -0.000114605 0.000632741)
(0.000503398 -8.31842e-05 0.000534094)
(0.000546723 -3.3072e-05 0.00066298)
(0.000432224 -2.66246e-05 0.000616186)
(0.000502057 -6.04115e-05 0.000633988)
(0.00057003 -4.67296e-05 0.000743793)
(0.00052094 -0.000111643 0.000521095)
(0.000514619 -0.000104125 0.000435441)
(0.000498952 -4.69628e-05 0.000541482)
(0.000635873 -4.35292e-05 0.000969139)
(0.000444971 2.41507e-06 0.000679557)
(-3.63511e-05 -2.5815e-05 0.000148696)
(0.000475139 -2.63853e-05 0.000676563)
(0.000549764 -1.69766e-05 0.000801319)
(0.000621027 -9.37743e-05 0.000870526)
(0.000636338 -0.00013822 0.000803926)
(0.000468255 -7.16182e-05 0.000579288)
(-4.14666e-05 -2.12576e-05 0.000160448)
(0.000581981 -0.00021664 0.000533059)
(0.000604635 -8.61815e-05 0.000721789)
(0.000611195 -0.000107288 0.00082646)
(0.000542408 -0.000115301 0.000677612)
(0.000602201 -7.3721e-05 0.000793731)
(0.000667375 -0.000152614 0.000770693)
(0.000600091 -0.000141993 0.000613398)
(0.000730375 -0.000254668 0.000780766)
(0.000655403 -0.000266826 0.000600563)
(0.000681556 -0.000184035 0.000756944)
(0.000480758 1.17979e-05 0.000751369)
(0.00048565 -4.40214e-05 0.00070758)
(0.000597384 -5.87385e-05 0.000861295)
(0.000639266 -6.45012e-05 0.000952556)
(0.000628054 -0.000163043 0.000866815)
(0.000577477 1.34677e-05 0.000864553)
(0.000653001 -0.000120198 0.000971177)
(0.000618496 4.91125e-05 0.000962565)
(0.000579611 -7.2205e-05 0.000852408)
(0.000570479 -0.000109074 0.000787873)
(0.000680859 -0.000145428 0.000933041)
(0.000564905 -0.000125088 0.000770047)
(0.000619951 -0.00018213 0.000740143)
(0.000700688 -0.000162878 0.000882177)
(0.000798679 -0.000254673 0.000940741)
(0.000616156 -0.000248845 0.000688435)
(0.000735582 -0.000356861 0.000620985)
(0.000743228 -0.000202042 0.00083025)
(0.000619536 -0.000182905 0.000416716)
(0.000515326 -0.000177876 0.000444186)
(0.000603039 -0.000194108 0.000451662)
(0.000585446 -9.80282e-05 0.000593638)
(0.000641665 -0.000178043 0.000593165)
(0.000643794 -0.000219755 0.000408764)
(0.000592741 -0.000208095 0.000361226)
(0.000661543 -0.000218502 0.000252724)
(0.000597178 -0.000164463 0.000346879)
(0.000690656 -0.000256218 0.000418756)
(0.000705413 -0.000301282 0.000288954)
(0.0006855 -0.000248374 0.000389642)
(0.000713371 -0.000268447 0.00059456)
(-4.41823e-05 -1.70939e-05 0.000158691)
(0.000686981 -0.000316892 0.000437605)
(0.000690466 -0.00023688 0.000583627)
(0.000813361 -0.000384814 0.000696807)
(0.000797272 -0.000414332 0.000470952)
(0.000743996 -0.000281635 0.000640581)
(-4.74695e-05 -1.24102e-05 0.000159998)
(0.000775683 -0.000369812 0.000474496)
(0.000815554 -0.000382335 0.000344134)
(-3.5972e-05 -3.43298e-05 0.000183076)
(0.000708867 -0.000279185 0.000446354)
(0.000641583 -0.00021762 0.00026078)
(-4.00202e-05 -2.70498e-05 0.000186321)
(0.000651873 -0.000194563 0.000220283)
(0.000635419 -0.000210077 0.000226508)
(-3.42628e-05 -3.41608e-05 0.000168394)
(0.000707473 -0.000205762 0.000172251)
(-3.74124e-05 -1.67221e-05 0.000169748)
(-4.06984e-05 -2.86312e-05 0.000183181)
(0.000730432 -0.00032787 0.00024375)
(0.000679765 -0.000245866 0.000218036)
(-4.18515e-05 -2.72102e-05 0.000182834)
(0.00067483 -0.000252301 0.000271946)
(0.000392788 -0.000231763 0.000221062)
(-4.53832e-05 -1.97948e-05 0.000178129)
(0.000456993 -0.000281094 0.000180958)
(0.000364674 -0.000225687 0.000177819)
(-4.44075e-05 -2.04436e-05 0.000182254)
(0.000262386 -0.000165835 0.000181262)
(0.000331079 -0.000216681 0.000184556)
(-4.82959e-05 -1.30677e-05 0.000190951)
(0.000238531 -0.000159795 0.000150675)
(0.000289615 -0.000163177 0.000227748)
(-3.71422e-05 -1.96244e-05 0.000164295)
(-3.36563e-05 -1.74093e-05 0.000151542)
(0.000335211 -0.000202791 0.000180116)
(-3.92802e-05 -2.37951e-05 0.000154004)
(-4.11337e-05 -1.82228e-05 0.000168274)
(0.000160753 -9.39968e-05 0.000148272)
(-3.95888e-05 -1.58502e-05 0.00015287)
(-4.35049e-05 -1.32341e-05 0.000166657)
(0.000220058 -0.000140392 0.000170597)
(-4.21031e-05 -1.26268e-05 0.000151036)
(0.000148557 -9.02282e-05 0.000130291)
(7.96049e-05 -3.35453e-05 9.89407e-05)
(0.000135592 -6.87221e-05 0.000149266)
(9.44822e-05 -3.3672e-05 0.000118013)
(6.26927e-05 -2.06711e-05 8.51252e-05)
(0.000106077 -4.19714e-05 0.00012681)
(7.43375e-05 -4.1071e-05 8.07824e-05)
(0.000163238 -8.18118e-05 0.000168245)
(0.000201874 -0.000110258 0.000168737)
(0.00021481 -0.000178866 8.65111e-05)
(0.000349698 -0.000254594 0.000118624)
(0.000247861 -0.00016731 0.000141524)
(9.21849e-05 -6.77786e-05 6.70844e-05)
(0.000205753 -0.000161399 0.000103133)
(0.000148393 -0.000100538 0.000114247)
(0.00010431 -6.6883e-05 0.000100224)
(0.000147412 -9.12381e-05 0.000131874)
(0.000197323 -0.00012701 0.000129921)
(3.99484e-05 -4.6757e-05 1.83579e-05)
(0.000104648 -6.81368e-05 8.92498e-05)
(7.54439e-05 -7.40546e-05 4.93492e-05)
(4.11573e-05 4.8279e-05 8.97148e-05)
(4.46212e-05 2.77519e-05 9.21822e-05)
(4.46322e-05 4.81484e-05 9.7271e-05)
(5.90811e-05 5.5277e-05 0.000108397)
(7.33436e-05 3.53936e-05 0.000113339)
(3.49292e-05 4.78651e-05 7.0283e-05)
(-2.55086e-05 -3.87236e-05 0.00014486)
(2.0273e-05 7.06615e-05 6.85249e-05)
(1.97031e-05 4.06467e-05 3.43083e-05)
(4.70986e-05 3.63211e-05 7.32273e-05)
(2.47651e-05 3.41857e-05 3.57228e-05)
(5.97171e-05 9.31537e-07 9.80593e-05)
(-2.8323e-05 -3.54314e-05 0.00014721)
(2.87015e-05 1.70498e-05 6.35254e-05)
(5.48545e-05 3.20232e-06 9.47917e-05)
(4.23154e-05 3.65137e-06 6.82537e-05)