/*--------------------------------*- C++ -*----------------------------------*\
  =========                 |
  \\      /  F ield         | OpenFOAM: The Open Source CFD Toolbox
   \\    /   O peration     | Website:  https://openfoam.org
    \\  /    A nd           | Version:  7
     \\/     M anipulation  |
\*---------------------------------------------------------------------------*/
FoamFile
{
    version     2.0;
    format      ascii;
    class       volScalarField;
    location    "5.25";
    object      p;
}
// * * * * * * * * * * * * * * * * * * * * * * * * * * * * * * * * * * * * * //

dimensions      [0 2 -2 0 0 0 0];

internalField   nonuniform List<scalar> 
382612
(
0.0021039
0.00190222
0.00202172
0.00202545
0.0017868
0.00224836
0.00214588
0.00202039
0.00184114
0.00172948
0.00189044
0.00187794
0.00185822
0.00188807
0.00196702
0.00210433
0.00190313
0.00204342
0.00204719
0.00206997
0.00209224
0.0021214
0.00215055
0.0021802
0.00215886
0.00213281
0.00210856
0.00256278
0.00261147
0.00265223
0.00268601
0.00247393
0.0024659
0.00245544
0.00243748
0.002342
0.00201381
0.00208018
0.00214967
0.00218518
0.00221537
0.00224242
0.00217152
0.00215324
0.00212939
0.00210021
0.00201453
0.00203052
0.00205331
0.00207227
0.00222245
0.00220228
0.00217879
0.00215377
0.0021174
0.0019775
0.00201494
0.00207974
0.00214912
0.00205305
0.00213262
0.00204371
0.00206708
0.00265081
0.0020998
0.00192237
0.00222247
0.00241898
0.0025217
0.00267
0.00269012
0.00269349
0.00269539
0.00287494
0.00286424
0.00284993
0.0028227
0.00270775
0.00248118
0.00259753
0.00264276
0.00267278
0.00269387
0.00304307
0.00304977
0.00305666
0.00303485
0.00285365
0.00219563
0.00234184
0.00237842
0.00239647
0.00240847
0.00258499
0.00259907
0.00261582
0.00261064
0.00250667
0.00205829
0.00211318
0.00214757
0.00216551
0.00218469
0.00220637
0.00208383
0.00207461
0.00206422
0.00205948
0.00187328
0.00190474
0.00192925
0.00194747
0.00219514
0.00217107
0.0021449
0.00211923
0.00207928
0.00175616
0.00185113
0.00188593
0.00190458
0.00191663
0.00208443
0.00205963
0.00203363
0.002006
0.00192967
0.00167897
0.00185039
0.00200943
0.0020378
0.00204967
0.0020546
0.00226892
0.00227677
0.00228777
0.00229701
0.00239706
0.00237073
0.00225574
0.00222697
0.00220801
0.00219437
0.00190097
0.00188939
0.0018755
0.00186452
0.00200446
0.00202344
0.00203864
0.00204929
0.00205178
0.00204347
0.00203235
0.00202384
0.00206269
0.00197624
0.00191057
0.00191156
0.00192023
0.00192687
0.00185373
0.00200821
0.00203901
0.00172514
0.00185169
0.00181881
0.00211769
0.00233447
0.0017527
0.00178076
0.00210407
0.00173959
0.00180785
0.00178656
0.00173181
0.00173127
0.00174084
0.00174649
0.0022886
0.00230006
0.00231841
0.00233867
0.0023181
0.00191096
0.00187916
0.00187156
0.0018731
0.00187606
0.00224372
0.00226027
0.00228641
0.00231664
0.00233847
0.002001
0.00213694
0.00215074
0.00215046
0.00214596
0.0021433
0.00192822
0.00192894
0.00193208
0.0019445
0.00160011
0.00160609
0.00161511
0.00161891
0.00199646
0.00199506
0.0019927
0.0019929
0.0020289
0.0016184
0.00160914
0.00202349
0.00192304
0.00157319
0.00180747
0.00197948
0.00167175
0.00196646
0.00194001
0.00166235
0.00152978
0.00186908
0.00191444
0.00177508
0.00157417
0.00180315
0.00194717
0.0020061
0.00201604
0.00198131
0.00185038
0.00171783
0.00203038
0.0019378
0.00200337
0.00205803
0.00198601
0.00201185
0.00213486
0.0021335
0.00193291
0.00195338
0.00199539
0.00200749
0.0020232
0.00204012
0.00221763
0.0022139
0.00220366
0.00216097
0.00244763
0.00242385
0.0024052
0.00238782
0.00284794
0.00283673
0.00282587
0.00279885
0.00265035
0.00254211
0.00247024
0.00248606
0.00250105
0.00250582
0.00251269
0.0021616
0.00216301
0.00215697
0.00214177
0.00215173
0.00264737
0.00261451
0.00261989
0.00263066
0.0026398
0.00247459
0.0024599
0.00243653
0.00241785
0.00243863
0.00268996
0.00264853
0.00264894
0.00266379
0.00267604
0.00290216
0.00290199
0.00290076
0.0028891
0.00280804
0.00271598
0.00285296
0.00288645
0.00290127
0.00290996
0.00335706
0.00336274
0.0033697
0.00334658
0.00314411
0.00233628
0.00237527
0.00239319
0.00241712
0.00243691
0.00250104
0.00249182
0.0024793
0.00245411
0.00233694
0.00212349
0.00221531
0.00225277
0.00228004
0.00229836
0.00265433
0.00266963
0.00269376
0.00270041
0.0025886
0.00184441
0.00185713
0.00186661
0.00188656
0.00190525
0.00203321
0.00204884
0.00206431
0.00207981
0.00209028
0.00197583
0.00195824
0.00193597
0.00192111
0.00189623
0.00246632
0.002494
0.0024763
0.00244893
0.00242896
0.00183225
0.00182094
0.00180717
0.00180497
0.00183167
0.00237014
0.00232861
0.00229728
0.0022699
0.00225204
0.00170078
0.00169671
0.00169226
0.00170563
0.00179802
0.00195783
0.00189674
0.00188967
0.00189663
0.00190369
0.00217705
0.0021925
0.00221525
0.00224468
0.00229943
0.00187609
0.00178222
0.00177025
0.00177674
0.00178263
0.00216146
0.00217378
0.00219172
0.00221165
0.00222099
0.00198292
0.00204429
0.00204788
0.00204899
0.00204565
0.00204241
0.0019334
0.00193326
0.00193372
0.00194003
0.00175519
0.00175324
0.00175521
0.00175596
0.00197386
0.00197686
0.00197924
0.00198116
0.00199072
0.00177296
0.00201839
0.00196025
0.001948
0.00194552
0.00194366
0.00187691
0.00203734
0.00215677
0.0020988
0.00207973
0.00206956
0.00206268
0.00194032
0.00194137
0.00194199
0.00194129
0.00202816
0.0020249
0.0020201
0.00201627
0.00203826
0.00204047
0.0020435
0.0020457
0.00199167
0.00199382
0.0019967
0.00199813
0.00215447
0.00216003
0.00216651
0.00217367
0.0022045
0.00200486
0.00205086
0.00208792
0.0021182
0.00190737
0.00202194
0.0019942
0.00183075
0.00172944
0.00195865
0.00196195
0.00174743
0.00213522
0.0021156
0.00207692
0.0020841
0.00194613
0.00203243
0.00201742
0.00208949
0.00207562
0.00218407
0.00220021
0.00215605
0.00214698
0.00214666
0.00214773
0.00219812
0.0021954
0.00219169
0.00219006
0.00220261
0.00229348
0.0022889
0.00228474
0.00228371
0.00228479
0.00222935
0.00223159
0.00223482
0.00223937
0.0022565
0.00209229
0.00205907
0.00205963
0.00205892
0.002056
0.00205371
0.00208984
0.00208604
0.00208097
0.00207837
0.00201075
0.00201377
0.00201685
0.00201876
0.00202537
0.00202761
0.00203042
0.00203213
0.00203597
0.00200935
0.00219242
0.00216641
0.00216329
0.00216086
0.00215808
0.00217201
0.00223628
0.00219148
0.00216983
0.00217283
0.0021795
0.00218419
0.00236467
0.00236481
0.00236349
0.00235656
0.00233886
0.00238722
0.00240106
0.00240445
0.00240633
0.00240799
0.00231478
0.00231183
0.00230818
0.00230682
0.00232126
0.00226876
0.00227526
0.00228048
0.00228179
0.00228222
0.00211312
0.00210722
0.00209991
0.00209656
0.00207754
0.00207747
0.00207451
0.00207199
0.00211285
0.00211352
0.00211409
0.00211283
0.00215166
0.00215211
0.00215532
0.00215766
0.0023687
0.00235997
0.00234793
0.00233329
0.00231898
0.00216227
0.00210667
0.00210509
0.00220226
0.00216563
0.00210561
0.00206784
0.00208242
0.00193443
0.00201228
0.00206637
0.00205786
0.00217454
0.00209813
0.00208432
0.00216424
0.00210525
0.00207243
0.00223159
0.00226111
0.00235225
0.00236102
0.00232019
0.00231136
0.0023147
0.00232096
0.00232545
0.00246396
0.00245875
0.00245043
0.00243874
0.00242153
0.00245988
0.00247988
0.0024877
0.00249233
0.00249495
0.00241762
0.00241535
0.00241088
0.00240336
0.00239981
0.00248133
0.00249674
0.00250505
0.00250879
0.00251098
0.00244926
0.00243852
0.00242421
0.00240709
0.00237789
0.00224367
0.00226309
0.00226386
0.00226206
0.00226063
0.0023513
0.00234063
0.00232774
0.00231062
0.00226339
0.00217042
0.00211263
0.0021234
0.00212908
0.00213006
0.00213007
0.00215843
0.00215349
0.00214777
0.00214889
0.00217543
0.00218023
0.00218579
0.00218991
0.00211916
0.00211939
0.00211976
0.00211892
0.00211253
0.00217119
0.0021689
0.00210377
0.00212365
0.00217956
0.00212405
0.00208317
0.00211218
0.00218073
0.00228717
0.00215674
0.00210707
0.00219444
0.00227228
0.00212991
0.00224953
0.00250595
0.00225338
0.00212356
0.00243331
0.00252416
0.00253581
0.00251321
0.00247297
0.0024331
0.0023533
0.00237122
0.00238188
0.00238685
0.00238955
0.00247295
0.00247027
0.00246729
0.0024632
0.00244677
0.00253805
0.00256809
0.00257746
0.0025827
0.00258646
0.00254992
0.00254263
0.00253251
0.00251939
0.0025017
0.00254302
0.00257911
0.00259235
0.00259899
0.00260329
0.00260387
0.00259893
0.00259209
0.00258072
0.0025462
0.00247094
0.00247692
0.0024856
0.00249566
0.00250355
0.00254493
0.00254143
0.00253643
0.00252558
0.00249321
0.00237314
0.00238594
0.00239475
0.00240177
0.00240647
0.00225236
0.0022473
0.00224083
0.0022329
0.00221574
0.00213385
0.00210487
0.0021175
0.0021225
0.00212329
0.00212201
0.00215207
0.00214735
0.00214105
0.00213591
0.00213675
0.00214045
0.00214571
0.00215144
0.00210159
0.00210036
0.00209655
0.00208892
0.00207988
0.00213512
0.00223659
0.00224251
0.00224988
0.00225759
0.00226402
0.00221434
0.00220823
0.00220092
0.00219424
0.00218556
0.00209406
0.00206539
0.00208144
0.00208657
0.00208944
0.0020928
0.00212983
0.00212207
0.00211297
0.0021058
0.00211373
0.00211687
0.00212028
0.00212305
0.00210251
0.00209872
0.00209648
0.0020931
0.0020761
0.00210453
0.00211051
0.00206469
0.00207433
0.00209794
0.00208793
0.00204725
0.00210618
0.00216741
0.00220824
0.00211026
0.00210446
0.00213406
0.0021493
0.00208883
0.00202605
0.00197868
0.00228119
0.00214474
0.00222021
0.00235695
0.00240758
0.00221336
0.00215406
0.00227137
0.0019958
0.00201208
0.00207015
0.00213775
0.00207702
0.00206222
0.00207736
0.00212683
0.00216094
0.00210175
0.00205796
0.00199225
0.00225639
0.00222733
0.00228496
0.00227829
0.00230923
0.00228039
0.0022729
0.00227167
0.00227203
0.00227017
0.00227008
0.00227183
0.00227807
0.00228365
0.0023682
0.00237536
0.00237423
0.00237419
0.00237485
0.00228562
0.00228457
0.00228181
0.00227456
0.00226133
0.00223385
0.00221795
0.00221246
0.00221208
0.00221341
0.00232034
0.00231781
0.00231544
0.00231338
0.00230491
0.00238247
0.00240323
0.00241157
0.00241776
0.00242214
0.00250548
0.00250197
0.00249477
0.00247942
0.00244742
0.00247241
0.00250525
0.00252163
0.00253004
0.00253494
0.00260383
0.00259733
0.00258941
0.0025795
0.00255357
0.00254864
0.00257744
0.00258768
0.00259362
0.00259763
0.00252929
0.00252509
0.00252006
0.002513
0.00249124
0.00242982
0.00243829
0.0024423
0.00244641
0.00244946
0.00235121
0.00234436
0.00233585
0.00233009
0.0023314
0.0023365
0.00236268
0.00237092
0.00237364
0.00237552
0.00223778
0.00223929
0.00223958
0.00223557
0.00221353
0.00221542
0.00223752
0.00224082
0.00223851
0.00223539
0.00208188
0.00207645
0.00207061
0.00206917
0.00208255
0.00208932
0.00209356
0.00209733
0.00207814
0.00207434
0.00206973
0.00206277
0.0020522
0.00207213
0.00207114
0.00207561
0.00208107
0.00208526
0.00212324
0.0021242
0.00212469
0.00212497
0.00212545
0.00210516
0.00210708
0.00210813
0.00210912
0.00210982
0.00205012
0.00204545
0.00203967
0.00203611
0.00203333
0.00203788
0.00204186
0.00204584
0.0020965
0.00209273
0.00209049
0.0020883
0.00207751
0.00207519
0.00207788
0.00208126
0.00213493
0.00213887
0.00214388
0.0021483
0.00215117
0.00208993
0.00208353
0.00206554
0.00205845
0.0019435
0.00198927
0.00210233
0.00209605
0.00207153
0.0020633
0.00210449
0.00215775
0.00188824
0.00199456
0.00200149
0.00187313
0.00195163
0.0019869
0.00206282
0.00207227
0.00214997
0.00208777
0.00210919
0.00221009
0.00222908
0.00210524
0.00208484
0.00211318
0.00227808
0.00217981
0.00209509
0.00217813
0.00216705
0.00247779
0.00272716
0.00286438
0.00288371
0.0027877
0.00258991
0.002347
0.00208882
0.00185467
0.00171827
0.00174916
0.00175944
0.00175782
0.00175391
0.00190399
0.00189874
0.00189341
0.00189202
0.00189385
0.0020857
0.00214233
0.002158
0.00215805
0.00215539
0.00225092
0.00224474
0.00223757
0.00223207
0.00221782
0.00221245
0.00225293
0.0022603
0.00226488
0.00226904
0.00235368
0.00235137
0.0023454
0.00232731
0.00225887
0.00241071
0.00242985
0.00243833
0.00244778
0.00245589
0.00243835
0.00243502
0.00242885
0.00241333
0.00235727
0.00229786
0.00233007
0.00234162
0.00234729
0.00235008
0.00244983
0.00244349
0.00243631
0.00243061
0.00242013
0.00241482
0.00242746
0.00243779
0.00244602
0.00245163
0.00245482
0.00245274
0.00244817
0.00243759
0.00241581
0.00236477
0.0023903
0.0023991
0.00240158
0.00240212
0.00227627
0.00227247
0.00226786
0.00226526
0.00226521
0.00230283
0.00230164
0.00229936
0.00229801
0.00229758
0.00219162
0.00218525
0.00217854
0.00217875
0.00220375
0.00218637
0.00218002
0.00218269
0.00218642
0.00218894
0.00218722
0.00219095
0.00219667
0.00220316
0.00220398
0.00212236
0.00211074
0.00211242
0.00211503
0.00211664
0.00205428
0.00205251
0.00204975
0.0020489
0.00206416
0.00204861
0.00204272
0.00204335
0.00204421
0.00204398
0.00206809
0.00206483
0.0020606
0.00205792
0.00206389
0.00200179
0.00201045
0.00201545
0.00202368
0.00203168
0.00203846
0.00203038
0.00202379
0.00201431
0.00200464
0.00202984
0.00203073
0.00203333
0.00203542
0.00205059
0.00204871
0.00204687
0.00204314
0.00203614
0.00203924
0.00207595
0.00208158
0.00207914
0.00204836
0.00196641
0.00203576
0.00200886
0.00192449
0.00206703
0.00205799
0.00190666
0.00173109
0.00181232
0.0019641
0.00188969
0.00171777
0.00184326
0.00190091
0.001946
0.00193957
0.00199482
0.00199697
0.00200888
0.00196691
0.00171346
0.00188886
0.00188276
0.00169902
0.00165673
0.0017911
0.00193315
0.00216079
0.00237032
0.00251092
0.00254624
0.00244873
0.00224574
0.00198009
0.00169159
0.00143569
0.00133057
0.00138116
0.00138876
0.00138403
0.00137833
0.00148035
0.00147424
0.00146817
0.00146519
0.00145979
0.00177467
0.00183275
0.00184518
0.00184206
0.00183642
0.00196174
0.00195392
0.0019452
0.00193919
0.0019296
0.00211713
0.00213797
0.00214677
0.0021539
0.00215914
0.0021036
0.002096
0.00208743
0.00208236
0.00207206
0.00222369
0.0022271
0.00223141
0.0022381
0.00224385
0.00215681
0.00215227
0.0021488
0.00215068
0.00214914
0.0022411
0.00222223
0.0022157
0.00221729
0.00222016
0.00224963
0.00224733
0.00224352
0.00223959
0.00224306
0.00234847
0.00235321
0.0023522
0.00235349
0.00235615
0.00231433
0.00231286
0.00231198
0.0023158
0.00233324
0.00225849
0.0022608
0.00225584
0.00225405
0.00225386
0.00222174
0.0022222
0.00222445
0.0022322
0.00224707
0.00217175
0.00216086
0.00216087
0.00216439
0.00216747
0.00226283
0.00226282
0.00226217
0.00225811
0.00224264
0.00227579
0.00225385
0.00230798
0.00231151
0.00224248
0.00225555
0.00226169
0.00226342
0.00226306
0.00215684
0.00215443
0.00215204
0.00215452
0.00217449
0.00214113
0.0021398
0.00214277
0.00214321
0.00214273
0.00211579
0.00211498
0.00211333
0.00211087
0.00211782
0.0020917
0.00209501
0.00209608
0.00209595
0.00209564
0.00202049
0.00202015
0.00202014
0.00202442
0.00204885
0.00217826
0.00217029
0.00215721
0.00214793
0.00214282
0.0020983
0.00210141
0.00210774
0.002123
0.00217157
0.00206804
0.00207135
0.00206275
0.00206001
0.00205848
0.00205896
0.00202222
0.00202354
0.00202653
0.00203718
0.00197002
0.00197892
0.00198389
0.00198694
0.00208656
0.00208456
0.00208206
0.00207428
0.00205306
0.00195389
0.00202057
0.00211905
0.00202512
0.00195434
0.00195963
0.00211549
0.00198898
0.00197644
0.00200145
0.0020102
0.00201128
0.0020103
0.00191653
0.00191614
0.00191472
0.0019145
0.0019279
0.00196637
0.00199474
0.00199671
0.00199389
0.00199075
0.00202023
0.00202715
0.0020336
0.00203051
0.00198619
0.00196911
0.00200364
0.00202073
0.00202553
0.00202862
0.00203293
0.00200582
0.00200887
0.00201039
0.00200446
0.00195421
0.00195998
0.00196798
0.00197342
0.00205394
0.00204911
0.00204313
0.00203395
0.00202201
0.00197337
0.00207297
0.00206169
0.00203365
0.00197417
0.00180511
0.00195642
0.00192084
0.00170955
0.00167536
0.00187121
0.00180682
0.00159001
0.00180982
0.00188404
0.00195706
0.00200323
0.001849
0.00186538
0.00191352
0.00189376
0.00186928
0.00194024
0.00200139
0.0019492
0.00205846
0.00204792
0.00201173
0.00198246
0.00185187
0.00198499
0.00195708
0.00181343
0.00210296
0.00209198
0.00205296
0.00208626
0.00200584
0.00201569
0.00198338
0.00200189
0.00164763
0.00183594
0.00186552
0.00160834
0.0016436
0.0018636
0.00192771
0.00191681
0.0017936
0.00190948
0.00185209
0.00169291
0.00171865
0.00187058
0.00191404
0.00168311
0.00168378
0.00190559
0.00190686
0.00164906
0.00171045
0.00192257
0.00196092
0.00178688
0.00168103
0.00193904
0.00192172
0.00163321
0.00183537
0.00183422
0.00179527
0.00176758
0.00168851
0.00167873
0.00168149
0.00168261
0.00189179
0.00189157
0.00189165
0.00190057
0.00195811
0.00221933
0.00215284
0.00213016
0.00211801
0.00211133
0.0018868
0.00188241
0.00187797
0.0018882
0.00197063
0.00218532
0.00215407
0.00213631
0.00212689
0.00212216
0.00205778
0.00205227
0.00204679
0.00205219
0.00211322
0.0020164
0.0019811
0.00185482
0.00182841
0.00177396
0.00176575
0.00176703
0.00176739
0.00196471
0.00196649
0.00196732
0.00196809
0.00199317
0.00219902
0.00215697
0.00214024
0.00213457
0.00213269
0.00202796
0.00202418
0.00201985
0.00202423
0.00207334
0.00223725
0.00222703
0.00221682
0.00221156
0.00220893
0.0021068
0.00210566
0.00210472
0.00211086
0.0021582
0.00213019
0.00210735
0.00202267
0.00198931
0.001927
0.00188405
0.00187929
0.00188121
0.00188299
0.0020808
0.00208264
0.00208795
0.00210167
0.0021178
0.0021876
0.00217308
0.00216244
0.00215917
0.00215893
0.00215342
0.00215152
0.00214872
0.00214749
0.00216102
0.00218834
0.0021802
0.00218171
0.00218221
0.00218196
0.00221384
0.0023311
0.00229694
0.00219618
0.00203657
0.00194379
0.00194768
0.00195253
0.00195242
0.00195065
0.00211498
0.00211247
0.00211361
0.00212367
0.00213735
0.00216526
0.00216664
0.00216623
0.00216989
0.00217447
0.00204774
0.00205117
0.00205192
0.00204154
0.00201167
0.00186707
0.00184121
0.00183503
0.00183752
0.00184105
0.00167498
0.00167928
0.00168231
0.00167645
0.00166343
0.00147409
0.00145444
0.0014442
0.0014421
0.00144259
0.00145249
0.00145053
0.00144938
0.00145384
0.00146996
0.00121517
0.00120338
0.00120114
0.00120422
0.00120807
0.00119108
0.00119136
0.00119404
0.00120014
0.00120644
0.00105347
0.00103286
0.00103298
0.00103516
0.00103719
0.000992068
0.000985661
0.000981033
0.000982751
0.00100607
0.00130101
0.00132994
0.00133491
0.00132944
0.00132245
0.00142767
0.00142074
0.00141334
0.0014121
0.00142613
0.00165376
0.00165818
0.00166357
0.00167048
0.00167683
0.0019198
0.00192395
0.00192684
0.00191722
0.00186278
0.00197129
0.00201109
0.00202086
0.0020223
0.00202298
0.00191906
0.00192148
0.0019221
0.00191584
0.00190871
0.00199937
0.00198948
0.00199252
0.00199567
0.00199841
0.00210709
0.00210815
0.0021085
0.00210348
0.00208884
0.00204257
0.00202586
0.00202447
0.00202502
0.00202462
0.00221093
0.00221068
0.00221417
0.00222199
0.0022305
0.00203216
0.00201519
0.00201569
0.00201798
0.00201896
0.00205709
0.00205794
0.00205908
0.00205845
0.00205389
0.00202441
0.00199902
0.00199457
0.00199442
0.00199471
0.00212564
0.00212941
0.00213753
0.00215267
0.00216627
0.00216854
0.00213418
0.00212189
0.00211747
0.00211578
0.00194118
0.00193904
0.00193573
0.00193336
0.00194732
0.00194489
0.00193017
0.00193079
0.00193236
0.00193302
0.00213124
0.00214006
0.00215588
0.00217969
0.00219234
0.0022308
0.00223552
0.00221586
0.00220033
0.00219121
0.0021902
0.002193
0.00219998
0.00221386
0.00222267
0.00228293
0.00226397
0.00226185
0.00226085
0.00226208
0.00206557
0.00206228
0.0020578
0.00205575
0.00206326
0.00193381
0.0019417
0.001977
0.00199132
0.00200412
0.00201441
0.00205108
0.00204977
0.00204633
0.00202667
0.0021317
0.00213027
0.00212948
0.00212989
0.00210555
0.00209943
0.00209531
0.00209522
0.00211301
0.00212441
0.00204608
0.00208542
0.00199107
0.00190721
0.00214716
0.00207652
0.00201296
0.00194664
0.0018055
0.00192345
0.00190505
0.00180901
0.00185405
0.00185138
0.00193794
0.00195905
0.00191456
0.00195544
0.00197365
0.00191089
0.00181813
0.00193611
0.00192611
0.00180188
0.00183108
0.00190891
0.00186725
0.00181959
0.00190683
0.00164647
0.00148454
0.00135076
0.00128638
0.00128101
0.00129921
0.00130652
0.00128849
0.00124495
0.00115889
0.0010385
0.000905271
0.000783518
0.000664222
0.000736788
0.000728043
0.000728484
0.00073158
0.000734081
0.000923797
0.000935504
0.000948298
0.00095363
0.00093675
0.000972398
0.000974599
0.000972429
0.000967947
0.00096378
0.000956001
0.000966755
0.000977507
0.000980774
0.000975987
0.00119129
0.00115118
0.00114453
0.00114939
0.00115599
0.00135038
0.00135945
0.00136756
0.00136447
0.00134711
0.00159119
0.00157524
0.0015697
0.00157294
0.00157653
0.00179559
0.00179176
0.00179027
0.00179714
0.00182151
0.00168743
0.00169941
0.00170103
0.00169902
0.0016962
0.00163451
0.00163926
0.00164232
0.00164314
0.00166186
0.0019616
0.00193898
0.00192462
0.00192247
0.00192421
0.00200122
0.0020008
0.00200391
0.00201949
0.00206936
0.00183095
0.00183518
0.00183578
0.00183449
0.00183308
0.00181573
0.00181758
0.00182003
0.00182485
0.00184713
0.00206687
0.00206013
0.00204397
0.00203561
0.00203257
0.00202123
0.00202288
0.00202831
0.00204458
0.0020909
0.00183452
0.00182654
0.00182724
0.00182873
0.0018288
0.00188473
0.00188562
0.00188658
0.00188665
0.00188643
0.00192782
0.0019004
0.00189362
0.00189112
0.00188968
0.00210079
0.00210986
0.00212516
0.0021447
0.00214471
0.00184456
0.00184566
0.00185093
0.0018534
0.00185431
0.00187628
0.00187377
0.00186739
0.00185438
0.00184191
0.00183957
0.00185236
0.00186828
0.00187905
0.00188483
0.00196029
0.00195401
0.00194319
0.00192394
0.00189407
0.00179039
0.00183007
0.00185156
0.00186238
0.00186777
0.00210091
0.00209605
0.00208815
0.00206779
0.00200076
0.00217359
0.00219825
0.00219534
0.00219143
0.00219006
0.00207802
0.00208298
0.00208749
0.00208264
0.00201509
0.00202117
0.00203112
0.00204037
0.00209155
0.00207855
0.00206394
0.00205138
0.00205455
0.0020671
0.00206872
0.00206791
0.00229424
0.00229187
0.00228981
0.00227724
0.00218736
0.00198092
0.00204796
0.00205355
0.00190617
0.00187112
0.00205316
0.00204317
0.0018689
0.00192376
0.00208938
0.00211804
0.0021293
0.00213388
0.00213885
0.00200782
0.00199818
0.00198199
0.00196326
0.0022215
0.00224097
0.0022395
0.00223853
0.00211587
0.00211147
0.00210424
0.00209009
0.0020711
0.00225306
0.00223523
0.00223243
0.00222467
0.00222021
0.00223767
0.00223427
0.00223044
0.00222293
0.00229411
0.00200853
0.00204203
0.00204031
0.00204371
0.00204996
0.0020556
0.0021242
0.00212694
0.00212872
0.00211551
0.00203218
0.00205639
0.00206459
0.0020705
0.00202994
0.00202334
0.0020158
0.0020069
0.00197769
0.0018758
0.00182458
0.00204038
0.00199709
0.00199802
0.00198846
0.00193408
0.00192218
0.00190316
0.00207203
0.0019959
0.00190934
0.00192929
0.00197431
0.00190292
0.0019611
0.00193007
0.00189318
0.0016465
0.00132815
0.00101153
0.000788149
0.000698276
0.000738257
0.00083897
0.000914298
0.000909501
0.000826385
0.000704261
0.000620765
0.00053693
0.00049102
0.000422602
0.000456814
0.000442633
0.000434347
0.000425888
0.000418919
0.000491378
0.000491849
0.000495133
0.000506065
0.000543447
0.000604786
0.000595108
0.000587857
0.000577339
0.000567017
0.000711357
0.000712545
0.000716941
0.000731983
0.000764027
0.000983774
0.000939652
0.000919965
0.000912403
0.000909118
0.00104285
0.00105127
0.00105821
0.00105977
0.00106962
0.00139709
0.00135429
0.00133698
0.00133491
0.00133775
0.00154495
0.00154645
0.00155205
0.00157222
0.00163274
0.00141876
0.00141899
0.00141719
0.00141461
0.00141301
0.00141346
0.00141833
0.00142243
0.00142703
0.00145394
0.00179838
0.0017745
0.0017532
0.00174305
0.00173998
0.00181533
0.00181731
0.00182356
0.00184344
0.00190449
0.00157956
0.00158614
0.00158686
0.00158597
0.00158455
0.0016458
0.00164863
0.00165216
0.00165813
0.00167965
0.00192997
0.00192366
0.00190392
0.00189048
0.00188422
0.00190751
0.0019137
0.00192678
0.00194968
0.0019677
0.00204775
0.00201186
0.00199157
0.001981
0.00197613
0.00169018
0.00168906
0.00168359
0.00167209
0.00166728
0.00173104
0.00173542
0.00174475
0.00175061
0.00175278
0.00185147
0.00184907
0.00184587
0.00184254
0.00183411
0.0019209
0.00194185
0.00194583
0.00194664
0.00194698
0.00204892
0.00204862
0.00204765
0.00204246
0.00201507
0.00198534
0.00200775
0.00201253
0.00201384
0.00201374
0.00203066
0.00202293
0.00200967
0.00198695
0.00194737
0.00200398
0.00200618
0.00201521
0.00202284
0.00202746
0.00217463
0.00218037
0.00218892
0.00219201
0.00214712
0.00205089
0.00212988
0.0021367
0.00213351
0.00213061
0.00205805
0.00205515
0.00205057
0.00204302
0.00200074
0.00211729
0.00211569
0.00211119
0.00210863
0.00211006
0.00207509
0.00192668
0.00199606
0.00194706
0.00199936
0.00217886
0.00179607
0.00196023
0.00222705
0.00182877
0.00213235
0.00286705
0.00198863
0.00216176
0.00219959
0.00251829
0.0019886
0.0016573
0.00119661
0.000811815
0.000548106
0.000480765
0.000554457
0.000674298
0.000745088
0.000712131
0.000607173
0.000494114
0.000407282
0.000374341
0.000336649
0.000429686
0.000433417
0.000429469
0.000425232
0.000422488
0.000344687
0.000351389
0.000356492
0.00035857
0.000366525
0.000590329
0.000576757
0.000558805
0.000545744
0.000538048
0.000767246
0.000776293
0.00078871
0.000802814
0.000827572
0.000789859
0.000767424
0.00076336
0.000758049
0.000751884
0.00112327
0.00113236
0.00114988
0.00117932
0.00121662
0.00140216
0.00135626
0.00133792
0.0013263
0.0013189
0.00128382
0.001288
0.00129235
0.00129801
0.00132489
0.00169273
0.0016638
0.00163724
0.0016221
0.00161507
0.00170256
0.00170766
0.00171682
0.00173263
0.00176319
0.0013996
0.00138408
0.00138665
0.0013908
0.00139318
0.00151874
0.00151885
0.00151905
0.0015201
0.00153233
0.00161026
0.00161196
0.00161021
0.00160709
0.00160455
0.00169464
0.00170255
0.00171131
0.00171138
0.00167987
0.00172845
0.0017585
0.00175481
0.00174353
0.00173278
0.0019392
0.00194691
0.00195854
0.00196301
0.00191754
0.00191744
0.00193957
0.00194192
0.00194268
0.00194273
0.00194868
0.00194742
0.00194343
0.00193442
0.00189684
0.00202164
0.00206063
0.00207136
0.00207678
0.00208021
0.00214869
0.00215006
0.00215143
0.0021477
0.00211023
0.00214881
0.00216227
0.00216628
0.00217104
0.00217489
0.00227498
0.00228175
0.00229167
0.00229032
0.00221507
0.00202314
0.00198383
0.00199216
0.00201125
0.00202505
0.00229017
0.00228668
0.00228177
0.00227495
0.00224317
0.0021917
0.00217134
0.00216993
0.00217342
0.00217587
0.00218362
0.00219019
0.00219834
0.00219462
0.00213267
0.00198189
0.00208439
0.00209111
0.00208293
0.00207535
0.00219497
0.00220219
0.00221465
0.00221232
0.00209361
0.00187143
0.00189302
0.00190369
0.00191055
0.00191439
0.00206571
0.0020703
0.00207362
0.00206576
0.00202897
0.00202629
0.00192574
0.0019058
0.00203177
0.00204491
0.00190034
0.00195325
0.00196176
0.00196407
0.00196431
0.00204482
0.0020473
0.00205005
0.00205025
0.00200458
0.00194789
0.00196269
0.00194939
0.0019237
0.00189378
0.00192659
0.00195672
0.00195776
0.00187483
0.00193014
0.00198801
0.00197237
0.00197152
0.00219885
0.00207044
0.00201924
0.00206888
0.00201788
0.00199665
0.00195044
0.00186162
0.00188637
0.00196544
0.00200592
0.00199711
0.00207115
0.00204346
0.00202419
0.00203284
0.00201443
0.0019997
0.00205698
0.00212913
0.00206751
0.00202548
0.00198178
0.00194727
0.00193124
0.00198958
0.00201699
0.00201373
0.00198256
0.00199611
0.00199648
0.00195308
0.00193773
0.00197689
0.00194937
0.00191768
0.00186154
0.00193238
0.00192647
0.00182672
0.00185218
0.00195826
0.00189831
0.0018349
0.00188542
0.00191817
0.0019592
0.00198214
0.00197612
0.00194988
0.00192852
0.00195883
0.00199437
0.0019295
0.00195062
0.00199344
0.00196121
0.00195743
0.00194582
0.00197205
0.0021113
0.00197338
0.00197839
0.00208385
0.00191469
0.00189752
0.00173141
0.00150663
0.00120733
0.000906689
0.000783737
0.000822103
0.00114011
0.00127459
0.00157365
0.00172736
0.00175379
0.00176687
0.00177646
0.00206885
0.00208434
0.00210137
0.00210816
0.00206849
0.00149384
0.0015577
0.00156777
0.00156777
0.00156384
0.00219349
0.00221454
0.00224099
0.00225276
0.00222127
0.00160423
0.00156969
0.0015667
0.00156943
0.00156959
0.00223693
0.0022586
0.00229022
0.00232097
0.00229641
0.00228271
0.0023666
0.00237256
0.00236093
0.0023493
0.00170312
0.00170529
0.00170305
0.00169473
0.00166409
0.00156619
0.00161757
0.00161682
0.00161395
0.0016114
0.00201616
0.00202613
0.0020393
0.0020573
0.00212518
0.00162915
0.00158347
0.00158026
0.00158238
0.00158111
0.00168152
0.00168334
0.00168637
0.00169542
0.00173153
0.00213938
0.00205186
0.00202341
0.00200989
0.00200149
0.00192079
0.00193043
0.00194767
0.00197729
0.00200768
0.0020681
0.00198332
0.00196054
0.00195234
0.00194832
0.0019157
0.00192092
0.00193303
0.00195781
0.00200258
0.00194526
0.00189222
0.00188509
0.00188775
0.0018909
0.00166477
0.00162208
0.00161738
0.00161784
0.00161679
0.00168769
0.00168776
0.00168631
0.0016881
0.0017159
0.00200595
0.00197371
0.00195223
0.00194181
0.00193805
0.00189911
0.00189725
0.0018986
0.00191739
0.00200535
0.00197916
0.00197466
0.00197739
0.00197828
0.00197786
0.00202805
0.00202789
0.00202715
0.00202539
0.00202796
0.00208819
0.00200183
0.00186264
0.0016589
0.00157089
0.00156017
0.00156211
0.00156124
0.00155854
0.00180491
0.00180702
0.00181284
0.0018321
0.00186768
0.00187717
0.00185237
0.00183924
0.00183632
0.00183652
0.00163686
0.00164116
0.00164526
0.0016428
0.00163608
0.00149366
0.00147165
0.00145671
0.00145061
0.00144815
0.00122825
0.00122952
0.00123533
0.00125261
0.00127908
0.00123668
0.00121584
0.00120619
0.00120399
0.00120407
0.00104314
0.00105078
0.0010582
0.00105977
0.00105724
0.00110952
0.00113315
0.00113273
0.00112205
0.00111084
0.000811546
0.000810039
0.000810497
0.000818045
0.000841436
0.000883451
0.000865126
0.000864285
0.000867484
0.000870012
0.000820472
0.000821559
0.000824125
0.000831566
0.000854689
0.000854524
0.000864534
0.0008581
0.000846308
0.000836342
0.000589539
0.000588101
0.000587081
0.000590271
0.000607916
0.000618911
0.000584721
0.000579271
0.000579828
0.000580918
0.000571302
0.000573877
0.000577445
0.000583609
0.000604622
0.0006329
0.000630987
0.000623064
0.000612418
0.000603357
0.000622297
0.000621657
0.000622566
0.000630685
0.000663452
0.000807089
0.000777984
0.000769593
0.00076928
0.00077028
0.000682592
0.000596986
0.000620686
0.000598495
0.000590147
0.000584594
0.000580462
0.000504071
0.000495231
0.000538383
0.000541835
0.000537947
0.000530884
0.000524668
0.000500995
0.00049886
0.000498216
0.000503907
0.000535074
0.000476842
0.000466449
0.000462486
0.000457986
0.000453904
0.000403693
0.000403928
0.00040493
0.000408703
0.00042387
0.000357809
0.000343567
0.000339901
0.000341192
0.000342838
0.000383831
0.00038612
0.000390517
0.000401476
0.000428262
0.000458319
0.000446727
0.000441422
0.000433329
0.00042547
0.000575897
0.000578518
0.000585965
0.000603832
0.000636647
0.000851832
0.000802353
0.000781984
0.000771868