/*--------------------------------*- C++ -*----------------------------------*\
  =========                 |
  \\      /  F ield         | OpenFOAM: The Open Source CFD Toolbox
   \\    /   O peration     | Website:  https://openfoam.org
    \\  /    A nd           | Version:  7
     \\/     M anipulation  |
\*---------------------------------------------------------------------------*/
FoamFile
{
    version     2.0;
    format      ascii;
    class       volVectorField;
    location    "5.25";
    object      wallShearStress;
}
// * * * * * * * * * * * * * * * * * * * * * * * * * * * * * * * * * * * * * //

dimensions      [0 2 -2 0 0 0 0];

internalField   uniform (0 0 0);

boundaryField
{
    outlet1
    {
        type            calculated;
        value           uniform (0 0 0);
    }
    Wall
    {
        type            calculated;
        value           nonuniform List<vector> 
40276
(
(0.000397969 5.0245e-05 0.000173408)
(-0.000186803 -8.35173e-06 0.000415629)
(-0.000190489 -7.62502e-06 0.000407513)
(0.000117293 -5.56868e-05 0.000155368)
(9.52201e-05 -2.10709e-05 0.0001463)
(8.15073e-05 2.78448e-05 0.000150186)
(9.04321e-05 4.53212e-05 0.000160269)
(0.000135995 3.79214e-05 0.000188562)
(0.000108235 2.59061e-05 0.000174752)
(0.000101251 2.17433e-05 0.00017038)
(0.000405285 4.09487e-05 0.000431672)
(0.000489958 1.78499e-05 0.000469441)
(0.000584151 4.22424e-05 0.000938538)
(0.000562642 4.31527e-05 0.000870193)
(0.000456166 -1.16703e-05 0.000320484)
(0.000409196 5.69317e-06 0.000351341)
(0.000381697 2.54518e-05 7.67191e-05)
(0.00034452 2.60911e-05 3.73585e-05)
(-8.4905e-05 -2.47464e-05 -0.000128593)
(-9.08281e-05 -5.31658e-05 -0.000142597)
(-0.000148427 3.7608e-05 0.000211675)
(-0.000179241 4.2548e-05 0.000198758)
(-0.000117948 3.17723e-05 6.80238e-05)
(-0.000136704 2.92647e-05 6.43782e-05)
(-9.92395e-05 2.35371e-05 4.35051e-05)
(-0.000111519 2.45938e-05 3.77487e-05)
(-0.000118385 3.99025e-05 2.00977e-05)
(-0.000116218 4.03287e-05 1.45917e-05)
(-0.000177186 5.71436e-05 3.23659e-05)
(-0.000158197 4.87927e-05 2.3603e-05)
(-0.000123583 4.04313e-05 7.52664e-05)
(-0.000138791 4.85693e-05 8.30961e-05)
(-5.25714e-05 -3.16498e-06 0.000159674)
(-4.68141e-05 -4.85336e-06 0.000148405)
(-5.93884e-05 1.01501e-05 7.68577e-06)
(-5.84685e-05 1.14945e-05 7.29017e-06)
(0.000574316 6.26739e-05 0.000192272)
(0.000623085 4.18778e-05 0.000206913)
(0.00108094 0.000259529 0.000365155)
(0.00123079 0.000337587 0.000388213)
(0.000994428 5.71431e-05 0.000128166)
(0.0009465 2.7952e-05 0.000154589)
(-4.62473e-05 -1.43873e-05 -0.000392645)
(-2.55596e-05 -1.11602e-05 -0.000359602)
(-4.95463e-05 -1.86624e-06 -0.000360417)
(-4.28557e-05 -6.26186e-06 -0.000300223)
(-7.21036e-05 -1.02611e-07 -0.000308367)
(-5.5705e-05 -3.20535e-06 -0.000252274)
(-6.59515e-05 -7.21521e-07 -0.000220744)
(-6.50635e-05 1.28635e-06 -0.000186905)
(-5.41878e-05 -1.29814e-06 -0.000156571)
(-6.67979e-05 1.64505e-06 -0.000163997)
(-5.8835e-05 -2.45956e-07 -0.000133935)
(-6.19768e-05 2.61454e-06 -0.000135386)
(0.000438763 7.86388e-05 0.000250545)
(0.000456986 9.25175e-05 0.000219307)
(-2.24295e-05 1.52923e-05 0.000140333)
(6.40357e-05 2.19951e-05 0.000190835)
(-1.56941e-05 1.06268e-05 0.000143434)
(-0.000468187 -0.00011734 -0.000447978)
(-0.000494877 -9.74892e-05 -0.000455945)
(1.90364e-05 3.45171e-05 0.000291165)
(-1.27775e-05 -1.17904e-05 0.000225061)
(8.38248e-06 -7.56426e-07 -3.63531e-05)
(1.09832e-05 2.20994e-06 -3.22599e-05)
(5.6554e-06 6.09903e-08 -3.19017e-05)
(1.90468e-06 -1.97858e-06 -3.10713e-05)
(9.00164e-06 9.98187e-08 -3.37666e-05)
(-0.000116034 -1.68728e-05 -0.000105705)
(-0.000127869 -6.19761e-06 -0.000114735)
(-5.75646e-05 4.83914e-06 -0.000113594)
(-5.80076e-05 -4.17259e-08 -0.000115725)
(-2.18318e-05 1.65007e-06 -2.2681e-05)
(-2.1813e-05 1.66091e-06 -2.20957e-05)
(-1.95835e-05 1.70415e-06 -2.12193e-05)
(-1.86945e-05 2.10232e-06 -2.03634e-05)
(-2.12569e-05 9.59091e-07 -2.12417e-05)
(2.18013e-05 -1.46351e-06 -7.16687e-06)
(1.88218e-05 -1.56445e-06 -1.08388e-05)
(1.94618e-07 4.33516e-06 1.23303e-07)
(1.0374e-06 1.01331e-07 1.00625e-07)
(8.27624e-06 -5.93911e-07 -4.77653e-07)
(1.93372e-05 1.10536e-07 1.32879e-05)
(1.86388e-05 7.66181e-08 1.3561e-05)
(2.64348e-05 -3.0118e-06 1.85617e-05)
(5.40541e-06 4.34492e-07 -2.69903e-05)
(1.91044e-06 -1.32495e-06 -2.61061e-05)
(4.8897e-06 7.21735e-07 -2.24396e-05)
(2.40005e-05 -3.0676e-06 1.73401e-05)
(2.4028e-05 -3.34394e-06 1.74446e-05)
(2.08013e-05 -2.74363e-06 1.56271e-05)
(-4.20488e-05 -4.63502e-06 -3.80565e-05)
(1.56211e-06 -7.94061e-07 -2.1779e-05)
(4.34084e-06 9.0134e-07 -1.86494e-05)
(1.35927e-06 -3.848e-07 -1.82345e-05)
(1.03847e-06 -2.03171e-07 -1.51433e-05)
(6.69614e-07 4.63879e-08 -1.25879e-05)
(8.30785e-08 1.33486e-07 -1.08369e-05)
(-2.83038e-06 -1.81034e-07 -8.4785e-06)
(-3.50336e-06 -7.16909e-08 -7.9795e-06)
(-4.33208e-06 -1.1893e-08 -7.9207e-06)
(-7.68983e-06 -1.91383e-07 -9.89171e-06)
(-8.05689e-06 -1.5462e-07 -1.06083e-05)
(-4.72867e-05 -8.46915e-07 -4.14972e-05)
(-8.43975e-06 -2.81587e-08 -1.16744e-05)
(-1.76631e-05 -4.94675e-06 -2.15219e-05)
(-1.47026e-05 -4.9003e-06 -1.71825e-05)
(-8.46779e-06 -1.09113e-07 -1.256e-05)
(-8.49859e-06 1.72635e-08 -1.37852e-05)
(-8.15577e-06 -4.60644e-07 -1.43364e-05)
(-8.42515e-06 2.35697e-08 -1.53605e-05)
(-7.93901e-06 -5.25879e-07 -1.6245e-05)
(-7.55292e-06 -2.35177e-07 -1.67535e-05)
(-7.30199e-06 -9.18123e-07 -1.82726e-05)
(-7.10935e-06 -1.43677e-06 -1.72284e-05)
(4.01228e-06 -8.95104e-07 -2.60786e-05)
(3.7869e-06 -2.87991e-06 -2.75961e-05)
(2.23189e-06 -2.90344e-06 -2.61132e-05)
(-0.000275276 -6.28562e-05 0.000486143)
(-0.000278203 -6.13262e-05 0.000440859)
(-1.36248e-05 -1.23241e-06 5.39349e-06)
(-1.20094e-05 -1.44079e-06 7.02327e-06)
(-3.95561e-05 -1.95753e-06 1.7632e-05)
(-3.37776e-05 -3.20083e-06 1.61575e-05)
(-4.03583e-06 -1.03351e-05 -5.02173e-06)
(-1.8944e-06 -1.015e-05 -2.47515e-06)
(-0.000127491 2.54707e-05 0.000184062)
(-0.000110691 3.4223e-05 0.00015653)
(-0.000160149 -1.73109e-05 0.000274217)
(-0.00013994 -2.33467e-05 0.000236067)
(-0.000102988 -5.82373e-06 0.000172919)
(-9.01108e-05 -8.88529e-06 0.000148836)
(-0.000156763 9.43688e-05 0.000468188)
(-0.00021753 0.00016937 0.000654979)
(7.62054e-06 -1.19474e-05 0.000188608)
(-1.008e-06 -4.7053e-06 0.000159326)
(-0.000102116 2.75579e-05 0.000193032)
(-5.57153e-05 1.30048e-06 0.000167477)
(-0.000180897 -5.56036e-05 0.000492013)
(-0.000180855 -3.83856e-05 0.000492593)
(-0.000180669 -4.38718e-05 0.000526312)
(-0.000196751 -2.00012e-05 0.000527996)
(-0.000559946 1.8424e-06 -0.000151433)
(-0.000642471 2.53805e-06 -0.000183612)
(-2.27561e-05 -7.96784e-05 9.95818e-06)
(-2.65502e-05 -7.89422e-05 1.19243e-05)
(-2.14569e-05 -4.38645e-05 6.54816e-05)
(-2.52193e-05 -5.36519e-05 8.18199e-05)
(-2.90536e-05 -5.25477e-05 6.60809e-05)
(-2.32239e-05 -4.04529e-05 5.37435e-05)
(-1.5469e-05 -8.61467e-05 8.48786e-06)
(-1.98963e-05 -9.83542e-05 6.53327e-06)
(-2.34971e-05 -8.34777e-05 8.81949e-06)
(-2.18844e-05 -8.64854e-05 9.21286e-06)
(-2.31359e-05 -0.000128636 -1.56103e-05)
(-1.99742e-05 -0.000111411 -1.41257e-05)
(-7.64307e-06 -5.66218e-05 -3.31687e-06)
(-9.87896e-06 -5.0537e-05 -4.75771e-06)
(-6.09794e-05 -3.12123e-05 9.45459e-05)
(-5.57674e-05 -3.30379e-05 8.9346e-05)
(8.81576e-05 3.98665e-06 -0.000234673)
(9.575e-05 -4.84932e-06 -0.000219519)
(-0.000137119 -5.92837e-05 -1.24954e-05)
(-0.000135951 -6.62559e-05 -1.46871e-05)
(-0.000299443 -4.80969e-05 0.000145671)
(-0.000321377 -5.22602e-05 0.000136874)
(-0.000291379 -7.42042e-05 -2.60358e-05)
(-0.000284745 -6.14616e-05 -3.52263e-05)
(-0.000173378 0.000193124 0.000236082)
(-0.000167159 0.000241707 0.000219137)
(-0.000249052 -4.48263e-05 1.31749e-05)
(-0.000131113 -4.66915e-05 -1.8479e-05)
(-0.000206897 -7.76394e-05 7.47378e-05)
(-0.000178254 -7.60688e-05 6.31984e-05)
(-0.000227709 -5.19555e-05 5.88481e-05)
(-6.73875e-05 -4.21882e-05 -7.10106e-06)
(-3.91099e-05 -2.09119e-05 6.05122e-05)
(-3.22296e-05 -1.93898e-05 5.5866e-05)
(0.000591647 -0.000239368 0.000429306)
(0.000534546 -0.000205303 0.000355016)
(0.000528657 -0.000302923 0.000230791)
(0.000486604 -0.000218904 0.000259658)
(0.000499926 -0.000259949 0.000250793)
(0.000273232 -0.000196178 0.000184963)
(0.0003713 -0.000250689 0.000216881)
(0.000292008 -0.000193118 0.000196144)
(0.000467348 -0.000221529 0.000360367)
(0.000497034 -0.000272545 0.000345568)
(0.000483797 -0.000260892 0.000295045)
(0.000386868 -0.00027202 0.000187471)
(0.000489258 -0.000315909 0.000185513)
(0.000408345 -0.000241711 0.000237756)
(0.000169548 -0.000112371 0.000159732)
(0.000265477 -0.000199641 0.000184187)
(0.000206729 -0.00013048 0.000181129)
(0.000158097 -0.000100122 0.000164563)
(7.98047e-05 9.71185e-06 0.000145758)
(0.000261101 0.000102345 5.89199e-05)
(0.000318973 0.000102896 0.000105136)
(0.000274286 7.036e-05 0.000115726)
(0.000290018 5.67488e-05 5.86914e-05)
(0.000347382 6.04588e-05 0.000102782)
(0.000312102 9.28364e-05 0.000101324)
(0.000282232 7.10534e-05 8.14741e-05)
(9.53561e-05 3.56831e-05 0.000118284)
(0.000105309 4.70637e-05 0.00011149)
(9.93051e-05 1.11911e-06 0.000161568)
(0.000102275 1.44965e-06 0.000164703)
(0.000119562 3.30239e-06 0.000182071)
(9.75849e-05 -1.39272e-06 0.000158437)
(0.000103043 1.23393e-05 0.00016469)
(8.06931e-05 1.85872e-05 0.000131222)
(7.06022e-05 1.74629e-05 0.000102249)
(6.82734e-05 -3.14841e-06 0.000119048)
(7.03298e-05 -6.64464e-06 0.000129568)
(4.35161e-05 -2.31661e-05 0.000103667)
(6.19542e-05 -2.32172e-05 0.000116364)
(4.97991e-05 -3.22881e-06 9.24047e-05)
(3.53755e-05 -7.18588e-06 7.78981e-05)
(4.10334e-05 -1.0499e-05 8.63223e-05)
(0.000138559 7.5581e-05 7.33736e-05)
(0.000164296 8.49791e-05 8.49984e-05)
(0.000168268 7.79493e-05 9.40999e-05)
(0.000162109 7.57831e-05 6.60843e-05)
(0.000101629 4.80448e-05 0.000100295)
(0.000114109 5.72113e-05 7.48633e-05)
(0.000120515 6.54175e-05 4.98155e-05)
(0.000123115 5.73133e-05 5.63877e-05)
(0.00010671 5.1604e-05 6.43752e-05)
(0.000242732 9.83489e-05 5.29847e-05)
(0.000195376 9.00286e-05 5.01564e-05)
(0.000260978 9.27093e-05 6.48094e-05)
(0.000240524 6.92325e-05 5.13634e-05)
(0.000208065 8.58413e-05 3.78516e-05)
(0.00019405 6.67911e-05 4.3485e-05)
(6.95306e-05 2.68649e-05 7.71024e-05)
(7.38237e-05 2.92194e-05 7.69862e-05)
(5.66359e-05 1.14041e-05 8.79408e-05)
(8.4407e-05 4.31488e-05 6.37341e-05)
(4.2869e-05 6.48319e-06 6.73148e-05)
(5.29048e-05 2.37186e-05 4.97275e-05)
(9.83108e-05 4.79428e-05 6.75976e-05)
(0.000132116 6.54422e-05 3.97166e-05)
(5.66257e-05 3.33306e-05 2.05914e-05)
(7.06985e-05 3.56232e-05 3.51091e-05)
(5.8372e-05 3.34583e-05 2.92385e-05)
(0.000115862 6.62225e-05 1.70635e-05)
(0.000148875 7.37777e-05 1.75247e-08)
(0.000138155 5.32758e-05 3.34173e-05)
(0.000133566 6.3911e-05 2.24528e-05)
(0.000308729 2.67382e-05 0.000539313)
(0.00034675 5.55249e-05 0.000628625)
(0.00031384 -2.12252e-06 0.000559411)
(0.000324358 2.77348e-05 0.000573527)
(0.000367405 0.000102872 0.000412973)
(0.000399893 0.000109509 0.000493613)
(0.000285612 9.85399e-05 0.000406487)
(0.0003136 9.31205e-05 0.000466535)
(0.000296743 0.000104758 0.000450223)
(0.000279273 8.69823e-05 0.000464957)
(0.000397424 0.000157357 0.000520613)
(0.000333634 0.000133731 0.000392502)
(0.000382574 0.000140823 0.000491006)
(0.000242394 9.09403e-05 0.000399791)
(0.000326435 0.000117949 0.000499451)
(0.000417778 0.000133383 0.000399867)
(0.000369624 0.000136108 0.000465483)
(0.000364409 0.000133928 0.000468817)
(0.000414318 0.000134818 0.000573639)
(0.000431783 0.000170427 0.000510234)
(0.000474514 0.000184434 0.000506963)
(0.000462033 0.000189727 0.000474628)
(0.000452962 0.000157814 0.000568878)
(0.000438296 0.000162157 0.000569441)
(0.000417848 7.73695e-05 0.000490116)
(0.000534187 8.33593e-05 0.000523336)
(0.00040883 9.71921e-05 0.000503501)
(0.000312645 9.75001e-05 0.000389752)
(0.000396082 9.44532e-05 0.000487917)
(0.000433082 7.38803e-05 0.000426331)
(0.000323968 5.86365e-05 0.00031954)
(0.000347544 0.000104732 0.000379792)
(0.000375771 8.70484e-05 0.000371075)
(0.000377982 9.70877e-05 0.000360253)
(0.000516248 -4.15389e-05 0.000456812)
(0.000533319 -6.04482e-05 0.000454599)
(0.000551445 -0.000149568 0.000434455)
(0.000425723 -6.58326e-05 0.000387404)
(0.000513182 -0.000127932 0.00033514)
(0.000399303 -9.61328e-06 0.00035515)
(0.000558147 -0.000139764 0.000360641)
(0.000375973 -2.98053e-05 0.000298527)
(0.00048828 -0.000107027 0.000283528)
(0.000581144 -0.000227723 0.00026991)
(0.000352517 6.00834e-05 0.00036732)
(0.00035244 8.83853e-05 0.000382804)
(0.000392925 2.39947e-05 0.000314209)
(0.000388207 6.48231e-05 0.000330199)
(0.000407628 0.000146843 0.000392918)
(0.000436748 0.00015025 0.000522963)
(0.000437169 0.000149385 0.000472333)
(0.000454118 0.000130997 0.000385048)
(0.000508832 0.00016617 0.000427258)
(0.000502175 0.000191183 0.000535338)
(0.000447857 0.00015666 0.000531408)
(0.000475759 0.000155645 0.000562748)
(0.00047703 0.000174488 0.000404139)
(0.000457814 0.000161305 0.000535602)
(0.000458382 0.000165942 0.000536409)
(0.000573787 0.000207645 0.000664257)
(0.000550365 0.000196946 0.000521114)
(0.000410984 0.000119658 0.00037682)
(0.000581175 0.000183365 0.000427563)
(0.000462794 0.000106293 0.000393745)
(0.00059383 0.00014997 0.000398983)
(0.000519508 0.000180556 0.000442628)
(0.000526245 0.000165876 0.000517014)
(0.000701945 0.000264965 0.00052803)
(0.00055742 0.000189725 0.000431218)
(0.000534504 0.000162611 0.000455906)
(0.000744897 0.000263082 0.000482246)
(0.000569045 0.000245981 0.000486253)
(0.000606512 0.000209865 0.000597871)
(0.00056258 0.000182169 0.000632311)
(0.000665308 0.000227637 0.000620558)
(0.000665586 0.000234276 0.000599623)
(0.00034966 0.000137412 0.0004617)
(0.000342638 0.000129062 0.000458939)
(0.000234662 6.82289e-05 0.000430563)
(0.000340353 0.000127346 0.000496046)
(0.000426534 0.000118434 0.000640562)
(0.000390652 0.000108718 0.000591593)
(0.000375764 0.000141948 0.000493409)
(0.000396269 0.000150628 0.000514981)
(0.000379561 0.000144469 0.000562251)
(0.000359314 5.92036e-05 0.000644878)
(0.000310141 3.89683e-05 0.000578761)
(0.000365585 0.000104688 0.000609517)
(0.000346511 9.23844e-05 0.000597693)
(0.000310217 3.81991e-05 0.000505878)
(0.000421555 0.00016603 0.000538724)
(0.000446143 0.000135453 0.000625993)
(0.00039724 0.000118561 0.000607182)
(0.000382473 -8.51793e-06 0.000633707)
(0.000474042 0.000139916 0.000715326)
(0.000355881 5.46149e-05 0.000611864)
(0.00046103 0.000181836 0.000529989)
(0.000501667 0.000192005 0.000571025)
(0.000447695 0.000137996 0.000633102)
(0.000434978 0.000170018 0.000562371)
(0.000503435 0.000199404 0.000568658)
(0.000501951 0.000123127 0.000699583)
(0.000510707 0.000140127 0.000782241)
(0.000406494 4.18879e-05 0.000677869)
(0.000372598 4.20294e-05 0.000612171)
(0.000404424 7.20183e-05 0.00064896)
(0.00045977 0.00012635 0.000687065)
(0.00039238 6.92606e-05 0.000607656)
(0.000511108 0.000213909 0.000604833)
(0.000511059 0.000101812 0.000751171)
(0.000590726 0.000187703 0.000851696)
(0.000277962 9.51535e-06 0.000485798)
(0.000289959 5.20835e-05 0.000497271)
(0.000352314 0.00012929 0.000551385)
(0.000371521 8.1621e-05 0.000629037)
(0.000348394 2.43469e-05 0.000577903)
(0.000433901 9.10196e-05 0.000689613)
(0.000331724 -1.37299e-05 0.000560713)
(0.00033488 3.69792e-05 0.000555032)
(0.000426168 0.000141239 0.000669949)
(0.000353976 4.46232e-05 0.000601913)
(0.000307849 3.56651e-05 0.000516507)
(0.000375873 -4.71833e-06 0.000619916)
(0.00032471 4.14987e-05 0.000545214)
(0.000349241 4.52029e-05 0.000575339)
(0.000423949 4.10872e-05 0.000692586)
(0.000330896 8.73083e-05 0.000568955)
(0.000330102 5.84377e-05 0.000556109)
(0.000419798 -5.81135e-05 0.000643111)
(0.000476254 0.000125938 0.000750379)
(0.000408508 -2.42953e-05 0.000689018)
(0.00052102 6.43783e-05 0.000851791)
(0.00039799 9.82115e-06 0.000665451)
(0.00041858 3.04708e-05 0.000684933)
(0.000527648 0.000158251 0.000766509)
(0.00042266 5.25522e-05 0.000675308)
(0.000482319 3.41183e-05 0.000768116)
(0.000518839 4.45023e-05 0.000849993)
(0.000527603 1.94382e-05 0.00084672)
(0.000417916 3.64049e-05 0.000669196)
(0.000471573 4.18469e-05 0.000748372)
(0.000421702 1.82999e-05 0.000669769)
(0.000480028 5.10433e-05 0.000760237)
(0.000546179 0.000172446 0.000691893)
(0.000535727 0.000190388 0.000621104)
(-2.10084e-05 -4.91145e-05 0.000160245)
(0.000563819 0.000149623 0.000779043)
(0.000489917 0.000134631 0.000670528)
(0.000615912 0.000226296 0.000671224)
(0.000572554 0.000218725 0.000604242)
(0.000609255 0.000212577 0.000680544)
(-2.52667e-05 -4.87886e-05 0.000159685)
(0.000544064 0.000170858 0.00071755)
(0.00056146 0.000204337 0.000660141)
(0.000608792 0.000225175 0.000690848)
(0.000555456 0.000165435 0.000769214)
(0.000623392 0.000174172 0.000914115)
(-2.2907e-05 -4.85704e-05 0.000156959)
(0.000466305 6.65336e-05 0.000732057)
(0.000432328 5.97404e-05 0.000710247)
(0.000465122 9.08044e-05 0.000708221)
(0.000525824 5.74232e-05 0.000795656)
(0.000463187 0.000103315 0.000705027)
(-2.5377e-05 -3.80805e-05 0.000159973)
(0.000574783 0.000232179 0.000666947)
(0.000594965 0.000119336 0.000839995)
(0.000682902 0.00021547 0.00093233)
(0.000655043 0.000217115 0.000777681)
(0.000717185 0.00025264 0.000653294)
(0.000776365 0.000287582 0.000656559)
(0.000644517 0.000187821 0.000836345)
(0.000603301 0.000172793 0.000750749)
(0.000633961 0.000257646 0.000627471)
(0.000667676 0.000237264 0.000681674)
(0.000644522 0.000204322 0.000763042)
(0.000711884 0.00024408 0.000811885)
(0.000740002 0.000283451 0.000782265)
(0.00066059 0.000205333 0.000840956)
(0.00068537 0.00016956 0.000943753)
(0.000561017 0.000134205 0.000787697)
(0.000629381 0.000139793 0.000978923)
(0.000510207 0.000100876 0.000757239)
(0.000589621 8.17825e-05 0.000891545)
(0.000734178 0.000242752 0.00093014)
(0.000608674 0.000194551 0.000773069)
(0.000650146 0.000170818 0.000926386)
(0.000543321 9.2365e-05 0.000874683)
(0.000560571 0.000148594 0.000796018)
(0.000735809 0.000134983 0.00103124)
(0.000640815 0.000145367 0.000994854)
(0.000591138 6.60603e-05 0.000948765)
(0.000590956 2.47131e-05 0.000941841)
(0.000475793 2.87627e-05 0.000789223)
(0.000467318 6.19511e-05 0.000736004)
(0.000603159 0.000120806 0.000872441)
(0.000618158 0.00013021 0.00096471)
(0.000578239 2.9566e-05 0.000905319)
(0.000596194 4.42095e-05 0.000938227)
(0.000603973 -3.1092e-05 0.000939676)
(0.000583103 4.7016e-05 0.000893928)
(0.000672907 0.000134283 0.000976014)
(-3.13516e-05 -4.31795e-05 0.000168361)
(0.000505251 2.23994e-06 0.000825781)
(0.000459166 5.7467e-05 0.000722955)
(0.000655021 0.000158439 0.000963709)
(0.00068675 0.00019758 0.00102608)
(0.00057025 2.24279e-06 0.000950544)
(0.000714572 7.22482e-05 0.00112602)
(0.000531242 5.06597e-05 0.000834745)
(0.000653806 3.86828e-05 0.00100296)
(0.000523857 6.64257e-05 0.000830079)
(0.000503068 -3.92172e-06 0.000769973)
(0.000644036 -8.03005e-05 0.000956349)
(0.0006996 4.44606e-05 0.00110785)
(0.000699232 1.72305e-05 0.00109819)
(0.00035581 -5.00533e-05 0.00051636)
(0.000278576 1.9238e-05 0.000431384)
(0.000311245 1.01761e-05 0.000446934)
(0.000299216 8.88618e-06 0.000456899)
(0.000215242 3.85554e-05 0.000384243)
(0.000285204 2.83747e-05 0.000443242)
(0.000363968 4.76098e-06 0.000475107)
(0.000284584 4.63509e-05 0.000447574)
(0.000339929 4.3374e-05 0.000603494)
(0.000340701 5.95018e-05 0.00057704)
(-2.31192e-05 -4.18196e-05 0.000153535)
(-2.67878e-05 -4.38518e-05 0.000160434)
(-2.47874e-05 -4.05181e-05 0.000148609)
(-2.62703e-05 -3.6839e-05 0.000149472)
(0.000380071 3.43315e-05 0.000596556)
(0.000343541 7.54028e-05 0.000547317)
(0.00040775 1.66315e-05 0.00054986)
(0.000363942 3.44018e-05 0.000494021)
(0.000386017 -7.3657e-06 0.000504285)
(0.000381211 1.05442e-05 0.000477518)
(-2.97126e-05 -3.62293e-05 0.000154852)
(0.000400948 4.52112e-06 0.000519716)
(-3.50362e-05 -2.89003e-05 0.000164928)
(-3.01278e-05 -3.461e-05 0.00015594)
(0.000415537 1.58901e-05 0.000222442)
(0.000410482 1.93103e-05 0.000263193)
(0.000394146 -7.96133e-06 0.000253978)
(-3.34683e-05 -3.44532e-05 0.000153966)
(-2.65213e-05 -3.83349e-05 0.000164609)
(-2.59167e-05 -4.18748e-05 0.000161151)
(-3.2321e-05 -3.37754e-05 0.000175045)
(-3.38629e-05 -4.23154e-05 0.000182654)
(-2.9705e-05 -3.02998e-05 0.000166657)
(-2.85676e-05 -2.62489e-05 0.000159457)
(-3.46666e-05 -3.44929e-05 0.000159042)
(0.000366202 6.22455e-05 8.54722e-05)
(0.000423393 6.25267e-05 0.000143211)
(0.000349718 3.44829e-05 9.29011e-05)
(0.000336189 6.4736e-05 7.61145e-05)
(0.000354032 4.8118e-05 9.91463e-05)
(0.000410549 1.51936e-05 0.000137597)
(0.000397128 1.64942e-05 0.000193065)
(0.000428194 -2.20729e-05 0.00020541)
(0.000420753 6.1404e-06 0.000173066)
(0.000398464 5.81373e-06 0.00020979)
(0.000390576 3.27783e-05 0.000106762)
(0.000408331 -1.08993e-06 0.000114434)
(0.000410008 -3.79049e-06 0.000371972)
(0.00038769 9.9172e-06 0.000402558)
(0.00038336 1.4961e-06 0.00042355)
(0.000343806 9.5235e-06 0.000405704)
(0.000372721 4.66293e-06 0.000439198)
(0.000312209 2.57644e-05 0.000408488)
(0.000440777 3.77445e-06 0.000410166)
(0.000449593 -1.83945e-05 0.000353582)
(0.000448712 -8.55258e-06 0.000337229)
(0.000390726 -7.20196e-08 0.000344741)
(0.000379226 -1.50774e-05 0.00043865)
(0.000392357 -8.55695e-06 0.000392637)
(0.000417344 2.58142e-05 0.000501486)
(0.000474883 -2.36924e-05 0.000259521)
(0.000447785 -4.07798e-05 0.000341343)
(0.00045521 -4.30849e-05 0.000286128)
(0.00046923 -2.57757e-05 0.000356215)
(0.000498372 -7.08823e-05 0.000246362)
(0.000441527 -3.4936e-05 0.000392568)
(0.000417332 -3.24778e-05 0.000451299)
(0.000454211 -6.00455e-05 0.000431973)
(0.000458363 -6.51261e-06 0.000516616)
(0.000534007 -8.04944e-05 0.000424845)
(0.000500339 -8.70689e-05 0.000353311)
(0.000508804 -7.99708e-05 0.000285681)
(0.000497234 -5.56906e-05 0.000357655)
(0.000439481 -3.92725e-05 0.00019308)
(0.000434768 -3.17852e-05 0.000156551)
(0.000466299 -3.34281e-05 0.000196766)
(0.000309433 7.17499e-05 4.65364e-05)
(0.000322522 5.70852e-05 7.27173e-05)
(0.000274258 7.85655e-05 2.48367e-05)
(0.000302819 6.81515e-05 4.24945e-05)
(0.000346087 3.38867e-05 6.68318e-05)
(0.000392575 4.25088e-06 9.03739e-05)
(0.000323431 4.73553e-05 6.43849e-05)
(0.000207022 7.54069e-05 9.72887e-06)
(0.000292454 8.53725e-05 2.53463e-05)
(0.000124459 5.94927e-05 4.34216e-05)
(0.000138256 5.98632e-05 2.22272e-05)
(0.000239715 9.07787e-05 1.4922e-05)
(0.00025791 6.97563e-05 5.2669e-05)
(0.000237786 3.91288e-05 -8.18512e-06)
(0.000282195 4.94196e-05 3.9811e-05)
(0.000341288 3.84368e-05 2.76329e-05)
(0.000234728 7.33277e-05 1.24157e-05)
(0.000226557 5.33768e-05 1.75504e-05)
(0.000306296 5.43353e-05 2.40395e-05)
(0.000565732 -0.000117089 0.000219411)
(0.000559615 -0.000122121 0.000371434)
(0.000543734 -0.000120731 0.00029686)
(0.000573043 -0.000109055 0.000376241)
(0.000447709 -2.04378e-05 0.000131135)
(0.00049379 -8.96986e-05 0.000193731)
(0.000453866 -4.38833e-05 0.000169999)
(0.000459613 -6.27273e-05 0.000176002)
(0.000411383 -1.03517e-05 8.70387e-05)
(0.000447815 -4.85505e-05 0.000125804)
(0.000534479 -0.000100247 0.000158041)
(0.000580985 -0.000114605 0.000201779)
(0.00060585 -0.000178961 0.000269036)
(0.000570473 -0.000123515 0.000191185)
(0.000541395 -0.000127072 0.000222895)
(0.000379724 1.85931e-05 5.05016e-05)
(0.000393707 -4.28564e-06 5.42372e-05)
(0.000426153 -5.24899e-05 0.00011045)
(0.000397819 -5.35131e-06 7.96566e-05)
(0.000412842 -3.02709e-05 7.42545e-05)
(0.000323713 3.47693e-05 5.30863e-05)
(0.00037285 -2.12639e-06 5.21785e-05)
(0.000550134 -9.30429e-05 0.000122478)
(0.000579588 -0.000145572 0.000143222)
(0.000605175 -0.000150969 0.000128484)
(0.000470022 -6.57254e-05 0.000123748)
(0.000432607 -2.99617e-05 0.000133008)
(0.000479623 -6.52329e-05 0.000102082)
(0.000300722 5.38618e-05 0.000514017)
(0.000319592 3.41237e-05 0.000530635)
(0.000359808 -1.65947e-05 0.000563606)
(0.000358618 8.88383e-06 0.000557813)
(0.000306496 7.17314e-05 0.000517362)
(0.000345053 6.69723e-06 0.000521985)
(0.000447767 -2.61494e-05 0.000667685)
(0.000318929 2.96556e-05 0.000522812)
(0.000351127 1.51534e-05 0.000542402)
(0.000403797 2.52791e-05 0.000622095)
(0.000396079 -9.12337e-06 0.000552107)
(0.00036443 1.35869e-05 0.00051708)
(0.000404538 1.74626e-05 0.000580816)
(0.000477362 -1.5239e-05 0.00067965)
(0.000485807 2.18889e-05 0.000800788)
(0.000364087 5.01436e-05 0.000584137)
(0.000415061 4.99833e-05 0.000672307)
(0.000401891 5.66084e-05 0.000674406)
(0.00042967 6.88261e-06 0.000661596)
(0.000568496 -6.58526e-05 0.000804367)
(0.000525498 -0.000108178 0.000705244)
(0.000432805 6.89548e-05 0.000709811)
(0.000453556 -9.53432e-06 0.000672529)
(0.000405862 1.14056e-05 0.000578105)
(0.000456366 1.0242e-05 0.000652965)
(0.000446455 -3.17699e-05 0.000565033)
(0.00040257 -2.12196e-05 0.000491977)
(0.000451153 -7.74258e-06 0.00058172)
(-3.62121e-05 -2.99834e-05 0.000160919)
(0.000522295 -9.81747e-05 0.00063563)
(0.000489517 -6.26811e-05 0.000542075)
(0.000534687 -1.9344e-05 0.000661782)
(0.000424913 -1.4454e-05 0.000614805)
(0.00049283 -4.51971e-05 0.000635776)
(0.000560013 -3.79472e-05 0.000737023)
(0.00050969 -9.28682e-05 0.000531135)
(0.000500128 -8.6792e-05 0.000444521)
(0.000487548 -3.13481e-05 0.000549058)
(0.000633105 -3.58307e-05 0.000967497)
(0.000439973 1.48332e-05 0.000678527)
(-3.63602e-05 -2.58139e-05 0.000148735)
(0.000470165 -1.14662e-05 0.000679658)
(0.000542007 -5.22124e-06 0.00079682)
(0.000617758 -7.48333e-05 0.000876012)
(0.000628754 -0.000118792 0.000808163)
(0.000459694 -5.07603e-05 0.000587838)
(-4.1477e-05 -2.12559e-05 0.00016049)
(0.000568462 -0.00019117 0.000543361)
(0.000594934 -6.67589e-05 0.000728589)
(0.000608217 -8.52166e-05 0.000838795)
(0.000534115 -8.45696e-05 0.000693228)
(0.000595536 -5.08222e-05 0.000801498)
(0.000661318 -0.000125214 0.00078964)
(0.000588813 -0.000104847 0.000642136)
(0.000724802 -0.000219256 0.0008061)
(0.000641683 -0.000221012 0.000631034)
(0.000675475 -0.00014919 0.000782307)
(0.000479369 2.53535e-05 0.000753305)
(0.000483668 -2.8537e-05 0.0007117)
(0.000593935 -4.8197e-05 0.000859852)
(0.000641207 -4.5222e-05 0.000962202)
(0.000628523 -0.000139732 0.000880522)
(0.000575005 3.9618e-05 0.000875662)
(0.000660888 -9.79012e-05 0.00099101)
(0.000622162 7.55565e-05 0.000977904)
(0.000583649 -3.99912e-05 0.000874619)
(0.00057221 -7.1617e-05 0.00081284)
(0.000682937 -0.000117104 0.000950997)
(0.000562614 -9.45592e-05 0.000788574)
(0.000613283 -0.000141925 0.000764929)
(0.00069784 -0.000135389 0.000898325)
(0.000798942 -0.000212957 0.000971171)
(0.000614107 -0.000205359 0.000723784)
(0.00072295 -0.000301284 0.000663464)
(0.000743519 -0.000160476 0.000867464)
(0.000597585 -0.00015166 0.000440708)
(0.00050155 -0.000150946 0.000459947)
(0.000589678 -0.000171003 0.000468209)
(0.000575318 -7.52623e-05 0.000610073)
(0.000636694 -0.000150387 0.000621732)
(0.000629589 -0.00018299 0.000446333)
(0.000584794 -0.000183369 0.000390848)
(0.000645368 -0.00019396 0.000282326)
(0.000592538 -0.000142068 0.000378236)
(0.000682904 -0.000226585 0.000454119)
(0.000691797 -0.00027136 0.00032297)
(0.000681481 -0.000220486 0.000427673)
(0.000705973 -0.000234098 0.000626178)
(-4.41932e-05 -1.70899e-05 0.000158731)
(0.000670897 -0.000274816 0.000473253)
(0.000684169 -0.000203836 0.000616082)
(0.000808054 -0.000342018 0.000736639)
(0.00078176 -0.000365446 0.000514599)
(0.000743441 -0.000242184 0.000685111)
(-4.74813e-05 -1.2405e-05 0.000160039)
(0.000769211 -0.00033307 0.000515502)
(0.0008069 -0.000355054 0.000376665)
(-3.59842e-05 -3.43356e-05 0.000183143)
(0.000710415 -0.000246265 0.000495443)
(0.000634326 -0.000195833 0.000292712)
(-4.00339e-05 -2.70526e-05 0.000186389)
(0.000646874 -0.000179045 0.000248302)
(0.000631457 -0.000186975 0.000263931)
(-3.42735e-05 -3.41647e-05 0.00016845)
(0.000711477 -0.000191698 0.000203757)
(-3.74228e-05 -1.6718e-05 0.000169799)
(-4.07112e-05 -2.86328e-05 0.000183241)
(0.000723086 -0.000304208 0.000275335)
(0.000683405 -0.000235154 0.00024281)
(-4.1866e-05 -2.72126e-05 0.0001829)
(0.000677369 -0.000227 0.000318074)
(0.000445397 -0.000280032 0.000220031)
(-4.5399e-05 -1.9794e-05 0.000178192)
(0.000503949 -0.000325627 0.000168899)
(0.000404711 -0.000267801 0.000166261)
(-4.44217e-05 -2.04425e-05 0.000182315)
(0.000312018 -0.000218307 0.000183295)
(0.000378876 -0.00026871 0.000176797)
(-4.83114e-05 -1.30641e-05 0.000191015)
(0.000277254 -0.000205263 0.000145078)
(0.000336236 -0.000210242 0.000232193)
(-3.71534e-05 -1.96229e-05 0.000164346)
(-3.36652e-05 -1.74058e-05 0.000151586)
(0.00038029 -0.000250802 0.000168365)
(-3.92908e-05 -2.37943e-05 0.000154046)
(-4.1146e-05 -1.82199e-05 0.000168325)
(0.000204167 -0.00014505 0.000154873)
(-3.95992e-05 -1.58464e-05 0.000152912)
(-4.35176e-05 -1.32298e-05 0.000166708)
(0.000266203 -0.000196861 0.000167898)
(-4.21144e-05 -1.2622e-05 0.000151077)
(0.000184693 -0.000134709 0.000132941)
(0.000107658 -7.55815e-05 0.000101447)
(0.000176593 -0.000122661 0.00015413)
(0.00012419 -7.43281e-05 0.000124715)
(9.30886e-05 -5.97661e-05 9.58108e-05)
(0.000142937 -8.48572e-05 0.000134643)
(0.000102224 -7.47367e-05 9.15042e-05)
(0.000204958 -0.000125021 0.000182317)
(0.000244182 -0.000157161 0.00016853)
(0.000258836 -0.000227377 8.60361e-05)
(0.00039829 -0.000302689 0.000113815)
(0.000281659 -0.000202243 0.000142152)
(0.000124708 -0.000105315 7.30179e-05)
(0.000248167 -0.000206249 0.000108164)
(0.000179298 -0.000131273 0.000125143)
(0.00014007 -0.000106629 0.000116286)
(0.000180026 -0.000122301 0.000146562)
(0.000230464 -0.000159981 0.000133596)
(6.76622e-05 -7.70729e-05 3.4236e-05)
(0.000133335 -9.61392e-05 0.000100986)
(0.000100819 -9.56861e-05 6.80566e-05)
(4.77246e-05 1.4868e-05 8.48727e-05)
(6.24578e-05 -1.1588e-05 9.22046e-05)
(5.90261e-05 1.25237e-05 0.00010165)
(6.20084e-05 3.07559e-05 0.000107763)
(6.82255e-05 4.79578e-05 0.000108694)
(3.75458e-05 3.53721e-05 7.42412e-05)
(-2.55141e-05 -3.87267e-05 0.000144895)
(3.40022e-05 4.00189e-05 7.73669e-05)
(3.12572e-05 2.75377e-05 5.07552e-05)
(4.56941e-05 5.15556e-05 7.40589e-05)
(2.70646e-05 5.37802e-05 4.25079e-05)
(8.62668e-05 -4.54441e-05 0.000103005)
(-2.83293e-05 -3.54336e-05 0.000147245)
(4.91831e-05 -1.49235e-05 7.25508e-05)
(8.49265e-05 -3.51698e-05 0.000105398)
(6.8306e-05 -2.88215e-05 8.42955e-05)