/*--------------------------------*- C++ -*----------------------------------*\
  =========                 |
  \\      /  F ield         | OpenFOAM: The Open Source CFD Toolbox
   \\    /   O peration     | Website:  https://openfoam.org
    \\  /    A nd           | Version:  7
     \\/     M anipulation  |
\*---------------------------------------------------------------------------*/
FoamFile
{
    version     2.0;
    format      ascii;
    class       volScalarField;
    location    "8.75";
    object      p;
}
// * * * * * * * * * * * * * * * * * * * * * * * * * * * * * * * * * * * * * //

dimensions      [0 2 -2 0 0 0 0];

internalField   nonuniform List<scalar> 
382612
(
0.00208011
0.0018356
0.00199596
0.00199887
0.00173869
0.00220705
0.00212169
0.00201545
0.00184534
0.00168287
0.0018798
0.00186751
0.00181057
0.00183762
0.00195188
0.0020721
0.00184771
0.00198773
0.00202068
0.00204049
0.00205928
0.00208356
0.00210777
0.00211598
0.00209736
0.00207417
0.00205129
0.00245525
0.00249911
0.00253619
0.002567
0.00235783
0.00235154
0.00234291
0.0023273
0.0022424
0.0019556
0.00204306
0.0021033
0.00213365
0.00215836
0.00218021
0.00209481
0.00207923
0.00205855
0.00203223
0.00194914
0.0019632
0.00198314
0.00199954
0.00215896
0.00214356
0.00212497
0.00210484
0.00207932
0.0019208
0.00197318
0.00205623
0.00211766
0.00200681
0.00207915
0.00195252
0.00196909
0.00261194
0.00201557
0.00186289
0.002124
0.00232829
0.00242931
0.00255849
0.0025756
0.00257783
0.0025789
0.00271347
0.00270408
0.00269162
0.00266742
0.00256365
0.00236501
0.00246567
0.00250498
0.00253153
0.00255025
0.00288037
0.00288758
0.00289596
0.00288093
0.00273151
0.00211801
0.0022414
0.00227166
0.00228632
0.00229602
0.00247106
0.00248525
0.00250269
0.0025046
0.00243918
0.00201254
0.00208212
0.00210257
0.00211539
0.00212913
0.00214477
0.00202034
0.00201332
0.00200517
0.00200208
0.00181217
0.00184077
0.00186158
0.00187656
0.0021268
0.0021089
0.00208874
0.00206853
0.00204189
0.00170232
0.00182104
0.00185281
0.00186724
0.00187579
0.00203778
0.00202027
0.00200101
0.00197874
0.00191255
0.00165929
0.00184342
0.00197012
0.00199231
0.00200081
0.00200355
0.00221111
0.00221989
0.00223212
0.00224506
0.00235904
0.00233823
0.0022072
0.00217586
0.00215683
0.00214323
0.0018966
0.00188689
0.00187548
0.0018698
0.0019864
0.00199901
0.00200983
0.00201672
0.00200951
0.00200642
0.00199999
0.0019953
0.00203738
0.00195713
0.00188796
0.00188776
0.0018942
0.00189852
0.00183127
0.00198462
0.00202155
0.00170901
0.00187413
0.00181648
0.00209916
0.00230716
0.00178134
0.00180249
0.00213813
0.00174336
0.00181853
0.00179698
0.00172832
0.0017249
0.00173359
0.00173913
0.00224006
0.00225061
0.0022681
0.0022912
0.00229215
0.00196793
0.00192831
0.00191806
0.00191732
0.00191854
0.00223436
0.00224901
0.0022727
0.00230226
0.00233104
0.0020047
0.00211278
0.00212031
0.00211902
0.00211421
0.00211105
0.00193253
0.00193259
0.00193482
0.00194658
0.00165139
0.0016541
0.00166095
0.00166373
0.00198184
0.00198255
0.00198283
0.00198561
0.00202229
0.0016772
0.00166744
0.00202641
0.00192494
0.00161314
0.00184398
0.0019821
0.00169584
0.00197313
0.00193965
0.00166184
0.00159123
0.00190146
0.00190866
0.00175394
0.00157726
0.00181047
0.00195073
0.00200791
0.00197994
0.00197124
0.00183651
0.00166845
0.00200624
0.00193126
0.00199344
0.0020252
0.0019436
0.00199248
0.00211511
0.00208996
0.00189307
0.00193847
0.001975
0.00198555
0.0019986
0.00201238
0.00216073
0.00215851
0.00215026
0.0021103
0.00237356
0.00234923
0.00233075
0.00231375
0.00272968
0.00271963
0.00271025
0.00268704
0.00255431
0.00247623
0.00241342
0.00241746
0.00242885
0.00243211
0.00243792
0.00210245
0.00210459
0.00209998
0.00208645
0.00209436
0.00255386
0.00251657
0.00251917
0.00252843
0.0025366
0.00236315
0.00234964
0.00232791
0.00231096
0.00233519
0.00254725
0.00250087
0.00250012
0.00251382
0.00252513
0.00272384
0.00272433
0.00272426
0.00271531
0.00264524
0.00256125
0.00268439
0.00271362
0.00272614
0.00273342
0.00314978
0.00315602
0.00316411
0.00314663
0.00297732
0.0022093
0.0022339
0.00224908
0.00227115
0.00228916
0.00236356
0.00235594
0.00234565
0.002325
0.00222821
0.00204882
0.0021256
0.00215783
0.00218136
0.00219703
0.00253213
0.00254651
0.00257001
0.00258122
0.00249994
0.00185431
0.00185093
0.00185641
0.00187287
0.00188852
0.00195917
0.00195761
0.00196938
0.00198361
0.00199326
0.00193847
0.00192391
0.0019057
0.0018956
0.00188599
0.00243509
0.00243649
0.00241526
0.0023893
0.00237102
0.00187509
0.00186618
0.0018557
0.00185784
0.00189914
0.00237748
0.00232715
0.00229595
0.00227122
0.00225564
0.00174902
0.00174463
0.00174008
0.00175428
0.00185247
0.00205375
0.00199071
0.00198179
0.00198598
0.00199087
0.00222334
0.00223581
0.00225494
0.00228117
0.00232989
0.00195632
0.00186545
0.00185356
0.00186025
0.00186664
0.00218912
0.00219974
0.00221512
0.00223229
0.00224085
0.00201119
0.00204354
0.0020457
0.00204661
0.00204361
0.00204075
0.00196681
0.00196598
0.00196558
0.00197088
0.00181311
0.00181052
0.00181214
0.00181305
0.00198321
0.00198657
0.00198959
0.00199179
0.00199991
0.00183243
0.00208675
0.00203283
0.00202025
0.00201635
0.00201359
0.00196552
0.00213386
0.00220721
0.00215908
0.00214404
0.00213603
0.00213057
0.00199289
0.00199245
0.00199152
0.00199086
0.00203905
0.00203683
0.00203317
0.00203039
0.00205526
0.00205648
0.00205852
0.00205992
0.00204416
0.00204579
0.00204989
0.00205289
0.0022247
0.00222896
0.00223337
0.00223674
0.00225648
0.00206001
0.00206241
0.00208916
0.00215757
0.00201413
0.00205932
0.00201956
0.00190821
0.00178998
0.00197889
0.0019819
0.00182372
0.00215164
0.00210729
0.00208012
0.00212294
0.00200009
0.00204146
0.00211408
0.00219497
0.00219235
0.00229147
0.00227955
0.00224554
0.00223983
0.0022412
0.00224328
0.00232957
0.0023266
0.00232244
0.00231762
0.00231552
0.00236612
0.00237403
0.00237645
0.00237908
0.00238226
0.0023116
0.00231183
0.00231144
0.00230789
0.00230296
0.00213334
0.00207566
0.00208423
0.00208659
0.00208633
0.00208634
0.00214826
0.00214125
0.00213237
0.00212694
0.00207969
0.00208394
0.00208912
0.00209303
0.00205927
0.00206019
0.00206154
0.00206098
0.00205652
0.00207948
0.00227192
0.00225904
0.00225984
0.00225904
0.00225703
0.00227254
0.00235378
0.00230227
0.00228962
0.00229494
0.00230323
0.00230931
0.00251825
0.00251733
0.00251443
0.00250235
0.00246214
0.00248959
0.00251473
0.00252478
0.00253126
0.0025359
0.00244881
0.00244283
0.00243508
0.00242676
0.0024212
0.00234763
0.00237806
0.00239184
0.002398
0.00240194
0.00220721
0.00219616
0.00218303
0.00217621
0.00212863
0.0021331
0.00213416
0.00213541
0.00216858
0.00216667
0.00216459
0.0021603
0.00221742
0.00221944
0.00222544
0.00223071
0.00245689
0.00244591
0.00243172
0.00241385
0.00238117
0.0022195
0.00214188
0.00212814
0.00224307
0.00216718
0.00211554
0.00208472
0.00214975
0.00201538
0.00203668
0.00208757
0.00213837
0.00218433
0.00209479
0.00210988
0.00222019
0.00217951
0.00211119
0.0022933
0.00236819
0.00245945
0.00249685
0.00244521
0.00245243
0.00246105
0.00247029
0.00247691
0.00258779
0.00258097
0.00257083
0.00255546
0.00252483
0.00255208
0.00258298
0.0025953
0.00260245
0.00260698
0.00251623
0.00251226
0.00250592
0.00249513
0.00248163
0.00246686
0.00247753
0.00248398
0.0024873
0.00248923
0.00242521
0.00241508
0.00240168
0.00238626
0.00235396
0.00222123
0.00224275
0.0022423
0.00223966
0.00223759
0.00231167
0.0023029
0.00229244
0.00227777
0.00223122
0.00215414
0.00210341
0.00211316
0.00211743
0.00211763
0.00211713
0.00213997
0.00213632
0.00213223
0.00213461
0.00218253
0.00218744
0.00219404
0.00219915
0.00213409
0.00213303
0.0021323
0.0021311
0.00212214
0.00217725
0.00215922
0.00210062
0.00210091
0.00214601
0.00210743
0.00207721
0.00208536
0.0021211
0.00221723
0.00212815
0.0020544
0.00206562
0.0021365
0.00207052
0.00231235
0.00263185
0.00220696
0.00210562
0.00232211
0.00247141
0.00255929
0.00257601
0.00255554
0.00253633
0.00245114
0.00248606
0.00250122
0.0025084
0.00251246
0.00258803
0.00258287
0.00257647
0.00256715
0.002538
0.00254516
0.00257631
0.00258578
0.00259191
0.00259667
0.00254959
0.00254158
0.00253092
0.00251986
0.00250674
0.00254556
0.00257646
0.00258781
0.0025947
0.00259951
0.00255366
0.00255098
0.00254492
0.00253068
0.00249262
0.00237485
0.00237018
0.00237488
0.00238223
0.00238824
0.00244596
0.00244402
0.00244151
0.0024353
0.0024117
0.00229751
0.0022956
0.0023005
0.00230594
0.00230957
0.00218849
0.00218453
0.00217965
0.00217556
0.00217143
0.0021109
0.0020876
0.00209538
0.00209837
0.00209819
0.00209644
0.00211838
0.0021149
0.00211022
0.00210718
0.00209553
0.00209696
0.00210006
0.00210348
0.00206975
0.00207001
0.0020683
0.00206365
0.0020616
0.00210236
0.00218963
0.00218268
0.00218652
0.0021917
0.00219602
0.00214284
0.0021388
0.00213358
0.00212983
0.00213357
0.00205865
0.00204522
0.00205624
0.00205984
0.00206139
0.00206329
0.00208187
0.00207662
0.00207023
0.00206502
0.00208606
0.00208661
0.00208775
0.00208882
0.00208359
0.0020815
0.00208136
0.00208091
0.00207363
0.00208477
0.00207924
0.00205245
0.00207312
0.00206977
0.00200686
0.00201685
0.0021015
0.00212836
0.00215163
0.00209112
0.0020644
0.00203606
0.00208167
0.00206995
0.00197545
0.00187485
0.00210523
0.00207258
0.00213365
0.00217573
0.00230823
0.00217147
0.0021816
0.00233837
0.00210174
0.00206503
0.00213843
0.00228021
0.00220186
0.00211516
0.00210206
0.00223443
0.00227799
0.00213695
0.00209082
0.00210015
0.00233851
0.00233071
0.00238312
0.00238849
0.00239546
0.00238507
0.00238316
0.00238401
0.00238538
0.00238096
0.00237928
0.0023782
0.00237942
0.00237742
0.0024649
0.00248441
0.0024896
0.00249367
0.00249712
0.00241669
0.00241445
0.00240972
0.00239838
0.00237283
0.00230856
0.00230513
0.00230544
0.00230848
0.00231198
0.00241488
0.0024099
0.00240416
0.00239657
0.00237277
0.00238795
0.00241282
0.00242186
0.00242911
0.00243518
0.00252575
0.00252112
0.00251399
0.00249797
0.00245692
0.00237199
0.00239085
0.00240384
0.00241182
0.00241658
0.00250344
0.0024981
0.00249202
0.00248598
0.00246833
0.00246412
0.00247278
0.00247727
0.0024813
0.00248443
0.00239988
0.00239766
0.00239596
0.00239471
0.00238269
0.00233497
0.00232506
0.00232228
0.00232352
0.00232516
0.00223703
0.00223212
0.00222615
0.00222401
0.00223766
0.00225791
0.00227344
0.00227623
0.00227593
0.00227599
0.00216579
0.00216791
0.00216966
0.00216992
0.00216301
0.00216176
0.00217649
0.00217623
0.0021727
0.00216937
0.00204549
0.00204145
0.00203699
0.00203625
0.00206681
0.00207191
0.00207478
0.00207736
0.00206728
0.00206338
0.00205851
0.0020513
0.00204334
0.00204379
0.00204167
0.0020464
0.00205153
0.00205529
0.00207373
0.00207434
0.00207453
0.00207476
0.00207462
0.0020566
0.00205319
0.00205242
0.00205238
0.00205214
0.0020159
0.00201215
0.00200704
0.00200321
0.00202181
0.00202649
0.00203035
0.00203423
0.00210502
0.00210129
0.00209944
0.00209721
0.00206895
0.00206635
0.00206823
0.00207086
0.00209416
0.00209839
0.00210434
0.00211086
0.00211636
0.00208065
0.00209116
0.00207237
0.00204758
0.00188938
0.00197106
0.00209365
0.00204223
0.00199798
0.00204171
0.0020817
0.00208313
0.00180896
0.00196335
0.00195212
0.00177113
0.00186243
0.00194448
0.00200171
0.0019596
0.00207747
0.00205312
0.00210496
0.00219248
0.00231317
0.00214676
0.00210165
0.00216814
0.00216791
0.00211987
0.00201132
0.00199322
0.00194494
0.00221084
0.00244793
0.00261465
0.00268795
0.00265301
0.00251522
0.00231247
0.00208426
0.00187534
0.00174137
0.0017903
0.00180306
0.00180216
0.00179919
0.00192353
0.00191635
0.00190855
0.00190393
0.00189874
0.00211138
0.00217745
0.00219375
0.00219496
0.00219362
0.00227696
0.00226825
0.00225824
0.00225115
0.00223468
0.00217276
0.00222347
0.0022361
0.0022413
0.00224476
0.00221032
0.00220911
0.00220463
0.00219162
0.00214609
0.00233071
0.00234021
0.0023442
0.00235203
0.00235935
0.00229418
0.0022937
0.00229009
0.00227608
0.00222905
0.00215397
0.00216209
0.00216746
0.00217107
0.0021726
0.00231204
0.00230818
0.00230529
0.002307
0.00231253
0.00228238
0.00227585
0.00228087
0.00228712
0.00229168
0.0022852
0.00228361
0.00227978
0.00227242
0.00226619
0.00221934
0.00223662
0.00224309
0.00224461
0.00224452
0.00215325
0.00215089
0.00214802
0.0021475
0.00215317
0.00222016
0.00220893
0.00220264
0.00219926
0.00219778
0.00211289
0.00210832
0.00210361
0.00210546
0.00213298
0.0021023
0.00208963
0.00209162
0.00209578
0.00209862
0.00212196
0.0021267
0.00213446
0.00214383
0.0021464
0.0020246
0.00201159
0.00201358
0.00201636
0.00201795
0.0019855
0.00198324
0.00197978
0.00197819
0.0019926
0.00200519
0.00200036
0.00200074
0.00200112
0.0020003
0.00203752
0.00203372
0.00202841
0.00202409
0.00202466
0.00197387
0.00200209
0.00201123
0.0020214
0.00203133
0.0020398
0.00201427
0.00200694
0.00199607
0.00198388
0.00200483
0.00200575
0.00200808
0.00200983
0.00204599
0.00204393
0.00204184
0.00203766
0.00202899
0.0020146
0.00205937
0.00208339
0.00207414
0.00201737
0.00192191
0.0020275
0.00197848
0.00184446
0.00199594
0.00202819
0.00187845
0.00167489
0.00176794
0.00195102
0.00185799
0.00164787
0.00181556
0.00188189
0.00192858
0.00191499
0.0019427
0.00196718
0.00200263
0.00195387
0.0016284
0.00184054
0.00184975
0.0016386
0.00161969
0.00166827
0.00173213
0.00189731
0.00206544
0.0021891
0.00223754
0.00218701
0.00204324
0.00182962
0.00159139
0.00136834
0.00126256
0.00131364
0.00132102
0.00131635
0.00131092
0.00143091
0.00142456
0.0014184
0.0014154
0.00140773
0.00169175
0.00174316
0.00175363
0.00175098
0.00174609
0.00187484
0.00186696
0.00185836
0.00185473
0.00185333
0.00203493
0.00204277
0.00204734
0.00205277
0.00205694
0.00195618
0.00195108
0.00194688
0.00194987
0.00195354
0.00211359
0.0020928
0.00208842
0.00209198
0.0020963
0.002021
0.00201884
0.00201972
0.00202895
0.00203626
0.00213701
0.00210495
0.00209246
0.00209098
0.00209212
0.00209664
0.00209511
0.0020926
0.00209181
0.00210501
0.00224252
0.00224163
0.00223546
0.00223309
0.00223351
0.00218297
0.00218233
0.00218298
0.0021912
0.00222386
0.0021475
0.00214675
0.00213878
0.00213515
0.00213403
0.00212233
0.00212418
0.00212854
0.00213861
0.0021541
0.00208268
0.00207048
0.00206901
0.00207062
0.0020721
0.00212576
0.00212553
0.00212474
0.00212259
0.00211607
0.00215088
0.00211209
0.00216412
0.00215827
0.00208833
0.0020848
0.00208797
0.00209051
0.00209123
0.00202794
0.00202631
0.00202507
0.00202915
0.00205275
0.00200247
0.00199797
0.00200079
0.00200147
0.0020011
0.00199174
0.00199033
0.00198793
0.00198555
0.00199418
0.00199207
0.00199637
0.00199751
0.00199725
0.00199683
0.00195554
0.00195623
0.00195733
0.00196161
0.00198188
0.00214323
0.0021376
0.0021228
0.00211183
0.00210577
0.00208028
0.00208355
0.00209037
0.00210686
0.00215819
0.00206517
0.00208103
0.00207327
0.00207059
0.00206924
0.00207024
0.00201567
0.00201734
0.0020211
0.00203314
0.0019528
0.00196356
0.00196912
0.00197249
0.0021002
0.00209695
0.00209305
0.00208332
0.00205607
0.00192869
0.00198923
0.00212328
0.00202309
0.0019246
0.00191108
0.00209213
0.00193542
0.00192705
0.00195854
0.00196933
0.00197114
0.00197034
0.00188156
0.00188107
0.00187942
0.00187826
0.00188594
0.00194469
0.00197903
0.00198245
0.00198074
0.00197843
0.00201918
0.00202646
0.00203284
0.00202791
0.00197082
0.00196241
0.00200975
0.00203278
0.00203964
0.00204454
0.00205078
0.00201117
0.00201366
0.00201434
0.00200671
0.00194102
0.00194879
0.0019584
0.00196489
0.00206727
0.00206065
0.00205251
0.00204065
0.00202358
0.00195673
0.00205279
0.00206166
0.00203258
0.0019558
0.00176713
0.00194189
0.00190292
0.00166307
0.00162432
0.0018487
0.00178472
0.0015517
0.00180282
0.00187586
0.00194113
0.00198175
0.00183556
0.00185202
0.00190109
0.00187537
0.00184139
0.00193183
0.00199054
0.00192271
0.00205666
0.00204847
0.00198646
0.00193225
0.00189064
0.00200433
0.00193323
0.00176915
0.002028
0.00205077
0.00205234
0.00207668
0.00203703
0.00203453
0.00201039
0.00204485
0.00169822
0.00185667
0.00190674
0.00169043
0.00177849
0.0019239
0.00196728
0.00199713
0.00188227
0.00195281
0.00189844
0.00178198
0.00175059
0.00188898
0.00192458
0.00171011
0.00179356
0.00195484
0.00196408
0.00177352
0.00187048
0.0019917
0.00200249
0.00190403
0.00179361
0.00198991
0.00194942
0.00171269
0.00195821
0.00194666
0.00191792
0.00187104
0.00179298
0.00178325
0.00178635
0.00178807
0.00201386
0.00201436
0.00201522
0.00202283
0.00207048
0.00228734
0.00223449
0.00221517
0.00220537
0.0022005
0.00200345
0.00199844
0.00199341
0.00200203
0.00207612
0.0022483
0.00222251
0.00220911
0.00220279
0.00220005
0.00215757
0.00215443
0.00215145
0.00215629
0.00220384
0.0021356
0.00211695
0.00200214
0.00195729
0.00190728
0.0018999
0.00190142
0.00190224
0.00209174
0.00209356
0.00209442
0.00209393
0.00211137
0.00228234
0.00224901
0.00223572
0.00223196
0.00223121
0.00215216
0.00214804
0.00214321
0.00214565
0.00218624
0.00232364
0.00231921
0.00231332
0.00231067
0.00230957
0.00223154
0.00223147
0.0022313
0.00223425
0.0022618
0.00225873
0.00223835
0.00215596
0.00210274
0.00202353
0.00199057
0.00198839
0.00199013
0.00199128
0.00216941
0.00216985
0.00217299
0.00218409
0.00219923
0.002267
0.0022611
0.0022551
0.00225442
0.00225571
0.00228926
0.00228733
0.00228403
0.00227919
0.00227903
0.00231168
0.00232195
0.00232673
0.00232701
0.00232635
0.00234127
0.00244704
0.00240927
0.00229056
0.00212702
0.00202058
0.00204549
0.00205415
0.00205363
0.00205113
0.00218775
0.00218295
0.00218018
0.00218412
0.00219015
0.0022283
0.00224411
0.00224961
0.00225666
0.00226355
0.00214889
0.0021521
0.00215243
0.00213868
0.00208808
0.0018897
0.00186965
0.00186851
0.00187498
0.00188124
0.00174046
0.00174474
0.00174761
0.001739
0.00171193
0.0014742
0.00146358
0.00145748
0.00145793
0.00146007
0.00146219
0.00145856
0.00145505
0.00145596
0.00146292
0.00121267
0.00120769
0.00120993
0.00121637
0.00122247
0.0011859
0.00118552
0.00118662
0.00118887
0.0011856
0.00101644
0.00100435
0.00100564
0.00100791
0.00101005
0.000925262
0.000920009
0.000917075
0.000921303
0.000946851
0.00117304
0.0011879
0.00119031
0.00118468
0.00117777
0.00131788
0.00131264
0.00130811
0.00131146
0.00133311
0.00155231
0.0015356
0.00153421
0.00153828
0.00154308
0.00172895
0.00173413
0.00173862
0.0017346
0.00170831
0.00181783
0.00184238
0.0018487
0.00184898
0.00184876
0.0017589
0.00176162
0.00176287
0.00175959
0.00176643
0.0018385
0.00181682
0.00181819
0.0018227
0.00182665
0.00193772
0.00193812
0.00193797
0.00193465
0.00192624
0.00191346
0.00189374
0.00189105
0.00189093
0.00189009
0.00210401
0.00210579
0.00211203
0.00212202
0.00213085
0.00188224
0.00185795
0.00185763
0.00186109
0.00186322
0.00192281
0.00192353
0.00192435
0.00192363
0.00191984
0.00192139
0.00189596
0.00189091
0.0018899
0.00188951
0.00203596
0.00204105
0.0020511
0.00206811
0.00208111
0.0020974
0.00206465
0.0020516
0.00204596
0.00204331
0.00184986
0.00184728
0.00184327
0.00184015
0.00185188
0.00187609
0.00186316
0.00186432
0.00186633
0.0018673
0.00210766
0.0021175
0.00213466
0.00215861
0.00216201
0.00222348
0.00224011
0.00222102
0.00220437
0.00219444
0.00220892
0.00221154
0.00221832
0.00223095
0.00222982
0.00231382
0.00230083
0.00230021
0.00229957
0.00230115
0.00207863
0.00207422
0.00206803
0.00206369
0.00206486
0.00193158
0.0019442
0.00198588
0.00200316
0.00201881
0.00203175
0.0020671
0.0020642
0.00205863
0.00203574
0.00215608
0.00215571
0.0021561
0.00215759
0.00213884
0.00213054
0.00212462
0.00212256
0.00213775
0.00214629
0.00205924
0.00210764
0.00198614
0.00188418
0.00213456
0.00207364
0.00201674
0.00194519
0.00179602
0.00191641
0.00190102
0.00180724
0.00185408
0.00184397
0.00193529
0.00196522
0.00191068
0.0019527
0.00197805
0.00191894
0.00183576
0.00194826
0.00191384
0.00177226
0.00180782
0.00190059
0.00185606
0.00180109
0.00191183
0.0016378
0.00145563
0.00129823
0.00121557
0.00119335
0.00118812
0.0011624
0.00110747
0.00103953
0.000962878
0.000881424
0.0007922
0.00069912
0.000603051
0.000687147
0.000675901
0.000674979
0.000677068
0.000678862
0.0008104
0.000821404
0.000833332
0.000840305
0.000835877
0.000894222
0.000896004
0.000893498
0.000888216
0.000883214
0.000835388
0.000845219
0.000855232
0.000861056
0.000871194
0.00110398
0.00105854
0.00104708
0.00104793
0.00105167
0.00119697
0.00120536
0.0012128
0.00121249
0.00121448
0.0014942
0.0014713
0.00145918
0.00145806
0.00145906
0.00165731
0.0016557
0.00165805
0.00167232
0.00171172
0.0015475
0.00155324
0.00155352
0.00155219
0.00155021
0.00151033
0.00151448
0.00151702
0.00151862
0.00154043
0.00186576
0.00184457
0.00182686
0.00182024
0.00181865
0.00189001
0.00189076
0.00189518
0.00191224
0.00196891
0.00167583
0.00168296
0.00168409
0.0016837
0.00168297
0.00171025
0.00171234
0.00171509
0.00172003
0.00174096
0.0019741
0.00197166
0.00195493
0.0019442
0.00193902
0.00191943
0.00192218
0.0019289
0.0019458
0.00199269
0.00171711
0.00170986
0.00171115
0.00171342
0.0017141
0.001784
0.0017847
0.0017854
0.00178481
0.00178363
0.00186083
0.00183863
0.00183225
0.00182909
0.00182706
0.00205081
0.00206117
0.00207801
0.00209793
0.00209193
0.00176899
0.00177412
0.00178093
0.00178431
0.00178579
0.00182956
0.00182637
0.00181882
0.00180366
0.00178526
0.00180493
0.00182384
0.00184219
0.00185429
0.00186079
0.00195566
0.00194852
0.00193623
0.00191456
0.0018796
0.00178828
0.0018348
0.00185849
0.00187031
0.00187628
0.00213698
0.0021316
0.00212292
0.00210063
0.00202621
0.00219536
0.00223137
0.00223099
0.0022282
0.00222766
0.00210768
0.00211128
0.00211416
0.00210769
0.00203379
0.00204158
0.00205381
0.00206555
0.00212645
0.00211067
0.00209323
0.00207782
0.00208589
0.00210124
0.00210515
0.00210611
0.00234087
0.00233722
0.00233323
0.0023168
0.00221157
0.00200357
0.00206764
0.00206185
0.00191283
0.00188805
0.0020684
0.00205963
0.00188086
0.00195107
0.00211301
0.00214501
0.00215884
0.00216555
0.00217238
0.00204762
0.00203619
0.00201749
0.00199633
0.00228636
0.00231013
0.00231056
0.00231083
0.00219407
0.00218863
0.00218004
0.00216417
0.00214177
0.00229814
0.00229423
0.00229495
0.00228823
0.00228435
0.00230162
0.00229704
0.00229145
0.00227974
0.00233751
0.00204245
0.00205939
0.00206296
0.00206778
0.00207549
0.00208293
0.00217047
0.00217192
0.00217188
0.00215591
0.00206653
0.00209301
0.00210327
0.00211079
0.00205368
0.0020452
0.00203579
0.00202551
0.00199493
0.00190163
0.00183638
0.00205684
0.0019962
0.00200914
0.00200936
0.00193083
0.00191664
0.00191121
0.00207555
0.00199377
0.00189961
0.00191734
0.00197384
0.00189411
0.00196268
0.00194395
0.0019174
0.0016449
0.0012792
0.000907073
0.000639911
0.000540379
0.000600068
0.000733303
0.000836484
0.000845547
0.00076225
0.000632964
0.000551497
0.00048295
0.00045007
0.000393358
0.000415907
0.000401894
0.000394587
0.000387834
0.000382308
0.000450005
0.000451042
0.000454696
0.000465505
0.000499521
0.000543679
0.000531543
0.000525197
0.000516594
0.000507886
0.000653718
0.00065628
0.000662578
0.000678592
0.000706566
0.000907636
0.000863633
0.000843023
0.000834261
0.00083004
0.000943034
0.000950569
0.000956708
0.000958929
0.000971722
0.00130571
0.00127013
0.00125023
0.001244
0.00124368
0.00144347
0.00144612
0.00145297
0.00147457
0.00154532
0.00128771
0.00129501
0.00129507
0.00129411
0.00129358
0.00132742
0.00133178
0.00133507
0.00133839
0.00136133
0.0017317
0.00171389
0.00169218
0.00167884
0.0016729
0.00173479
0.00173749
0.00174442
0.0017635
0.00182286
0.00146108
0.00147107
0.00147306
0.00147345
0.00147275
0.00157571
0.00157858
0.00158224
0.00158781
0.00160562
0.0018605
0.00186013
0.00184075
0.0018256
0.00181768
0.00183803
0.00184544
0.00185985
0.00188237
0.00189408
0.0019781
0.00194862
0.00192876
0.00191721
0.00191144
0.00161705
0.00161537
0.00160913
0.00159641
0.00158799
0.00166665
0.00167478
0.00168505
0.00169159
0.00169414
0.00181866
0.0018158
0.00181198
0.00180751
0.00179287
0.00190518
0.00193291
0.00193822
0.00193951
0.00194005
0.00206236
0.00206172
0.00206007
0.00205337
0.00202013
0.00199817
0.00202668
0.00203297
0.00203497
0.00203514
0.00207283
0.0020644
0.00205005
0.00202538
0.00198016
0.00205695
0.0020624
0.0020726
0.00208093
0.00208599
0.00222921
0.00223428
0.00224172
0.00224214
0.00218628
0.00209363
0.00218384
0.00219363
0.00219185
0.00219001
0.00210184
0.00209761
0.00209152
0.00208225
0.00203206
0.00214309
0.00214729
0.00214412
0.00214263
0.00214538
0.00212612
0.0019853
0.00200823
0.00197236
0.00206632
0.0022001
0.00183589
0.00200614
0.00221371
0.00186401
0.00220506
0.00293168
0.00205719
0.00218674
0.00227202
0.00255778
0.00202453
0.00164812
0.00114273
0.000718057
0.000438207
0.000375102
0.000472119
0.000623089
0.000720618
0.000703121
0.000601966
0.000485808
0.000396849
0.000366723
0.000327409
0.000428769
0.000432814
0.000429637
0.000426281
0.000424279
0.000326396
0.000332899
0.000337238
0.000337841
0.000343872
0.000589668
0.000582062
0.000564499
0.000550051
0.000541088
0.000782189
0.000791656
0.000804129
0.000816179
0.000833375
0.000769309
0.000752511
0.00075035
0.000746218
0.000740789
0.00113603
0.00114678
0.00116598
0.00119447
0.00122321
0.00138556
0.00135184
0.00133591
0.00132388
0.00131575
0.00124983
0.00125342
0.00125691
0.00126105
0.00128152
0.00166258
0.0016416
0.00161564
0.00159852
0.00158953
0.00165984
0.00166573
0.00167538
0.00168904
0.00170839
0.00133801
0.00132526
0.00132917
0.00133452
0.0013377
0.00146313
0.00146298
0.00146264
0.00146305
0.00147502
0.00155427
0.00155783
0.00155663
0.00155364
0.00155107
0.00164628
0.00165457
0.00166341
0.00166283
0.00162799
0.00168965
0.00172467
0.00172134
0.00170968
0.00169826
0.00192802
0.00193549
0.00194687
0.00195041
0.00189771
0.00191486
0.00194459
0.00194819
0.00194923
0.00194925
0.00197166
0.00197034
0.00196589
0.00195487
0.00190695
0.00204841
0.00209393
0.00210631
0.00211236
0.00211604
0.00220064
0.00220196
0.00220303
0.00219843
0.00215649
0.00222632
0.00224741
0.00225254
0.00225767
0.00226188
0.00234194
0.00234776
0.00235621
0.0023522
0.00226726
0.00207819
0.00204606
0.00205651
0.0020773
0.00209226
0.00239077
0.00238702
0.00238181
0.00237326
0.00232793
0.00228522
0.00226984
0.00226964
0.0022742
0.00227755
0.00225087
0.00225675
0.00226365
0.00225627
0.00218113
0.00202752
0.00214151
0.00215154
0.00214469
0.00213792
0.0022702
0.00227661
0.00228783
0.00228204
0.00215067
0.00189683
0.0019226
0.00193471
0.00194309
0.00194816
0.00208833
0.00209216
0.00209446
0.00208478
0.00204545
0.00204287
0.00194411
0.00193728
0.00204473
0.0020606
0.00192695
0.00198458
0.00199479
0.00199873
0.00200014
0.00206847
0.00207007
0.00207201
0.00207065
0.00201225
0.00197829
0.002005
0.00195362
0.00192048
0.00191209
0.00194558
0.00196144
0.00196648
0.00190623
0.00196151
0.00199789
0.00197579
0.00197638
0.00218805
0.00207065
0.00201898
0.0020713
0.00202005
0.00199502
0.00195742
0.00187858
0.00190543
0.00197164
0.0020206
0.00202504
0.00206572
0.00204356
0.00200263
0.00198699
0.001976
0.00198557
0.00204382
0.00210234
0.00205165
0.00202332
0.00198349
0.0019372
0.00191961
0.00198304
0.00201404
0.00200669
0.00196039
0.00198672
0.00198839
0.00194166
0.00193659
0.00197864
0.00194966
0.00192303
0.0019144
0.00195169
0.0019473
0.00188454
0.00188456
0.00197396
0.00191883
0.00186233
0.00193094
0.00194273
0.00197923
0.00201877
0.00199324
0.00196196
0.00193583
0.0019639
0.00198752
0.00192871
0.001954
0.00200032
0.00194873
0.00195606
0.00194306
0.00195205
0.00204586
0.00196137
0.0019826
0.00207995
0.0018747
0.00184467
0.00166258
0.00144435
0.00117856
0.00092442
0.000836176
0.00087971
0.00117213
0.00126394
0.00153449
0.00166472
0.00168679
0.00169815
0.0017067
0.00199465
0.00200992
0.00202712
0.00203596
0.00200961
0.00146054
0.00150736
0.00151531
0.0015158
0.00151265
0.00213521
0.00215504
0.00218055
0.00219452
0.0021804
0.00159534
0.00154689
0.00154186
0.00154471
0.00154536
0.00217398
0.00219384
0.00222354
0.00225545
0.00224814
0.00225097
0.00229797
0.00229777
0.00228571
0.00227449
0.00167906
0.00168099
0.00167896
0.00167391
0.00166296
0.00163875
0.00166583
0.00166241
0.00165885
0.00165582
0.00203073
0.00203981
0.00205275
0.00207383
0.00215672
0.00169764
0.00164196
0.00163701
0.00163915
0.00163843
0.0017838
0.00178587
0.00178925
0.00179904
0.00184374
0.00220034
0.00211566
0.00208794
0.00207594
0.00206901
0.00199348
0.00200107
0.0020155
0.00204314
0.00207666
0.00215029
0.00207046
0.00204887
0.00204187
0.00203889
0.0020002
0.00200392
0.00201413
0.0020374
0.00208024
0.00205094
0.00200785
0.0020023
0.00200447
0.00200718
0.00175865
0.00171704
0.00171244
0.00171263
0.00171144
0.00178465
0.00178528
0.0017848
0.0017871
0.00181315
0.00206375
0.00203281
0.00201251
0.0020036
0.00200105
0.00197963
0.00197699
0.00197704
0.00199159
0.00205984
0.00208104
0.0020795
0.00208298
0.00208339
0.00208241
0.00212474
0.00212467
0.00212428
0.00212151
0.0021136
0.00220466
0.00211846
0.00195361
0.00173835
0.00163468
0.00163013
0.00163254
0.00162987
0.00162549
0.00184546
0.00184642
0.00185027
0.00186716
0.00190218
0.00190194
0.00188304
0.00187548
0.0018762
0.00187852
0.00168823
0.00169356
0.00169851
0.00169482
0.00168221
0.00150967
0.00148905
0.00147705
0.00147306
0.00147196
0.0012342
0.00123403
0.00123762
0.00125253
0.00128307
0.00123791
0.00122006
0.00121392
0.00121408
0.00121552
0.00107587
0.00108475
0.00109384
0.00109647
0.00109139
0.00114606
0.00117834
0.00117808
0.00116706
0.00115598
0.000817735
0.000814854
0.000813278
0.000817642
0.000835159
0.000848893
0.000829945
0.000830229
0.000834931
0.000838609
0.0007905
0.000792546
0.00079555
0.000800947
0.000817223
0.000836009
0.0008457
0.000839141
0.000828168
0.000819252
0.000589118
0.000586912
0.000584913
0.000586492
0.000599481
0.00057463
0.000540027
0.000534319
0.000534926
0.000536095
0.000536426
0.000539728
0.000543786
0.000548644
0.000561965
0.00055348
0.000545362
0.000537514
0.000528327
0.000520456
0.000567757
0.00056795
0.000570262
0.000580118
0.000612439
0.000739522
0.000706635
0.000696149
0.000694288
0.000694213
0.000608398
0.000532637
0.000568059
0.000550077
0.000542502
0.000537096
0.000533052
0.000452179
0.000446373
0.000473787
0.000476503
0.000473278
0.000467525
0.00046238
0.000456034
0.000454362
0.00045406
0.000459622
0.000488333
0.000443812
0.000440705
0.000438006
0.00043382
0.000430092
0.000371567
0.000371213
0.000371346
0.000373744
0.000385077
0.000332905
0.000322725
0.000320064
0.000321601
0.000323446
0.000364811
0.000366833
0.000370695
0.000380899
0.00040743
0.000432265
0.000422779
0.000418782
0.000412195
0.000405562
0.000548889
0.000552718
0.0005613
0.000578289
0.000603693
0.000817493
0.000770381
0.000752133
0.00074247
0.000736196