/*--------------------------------*- C++ -*----------------------------------*\
  =========                 |
  \\      /  F ield         | OpenFOAM: The Open Source CFD Toolbox
   \\    /   O peration     | Website:  https://openfoam.org
    \\  /    A nd           | Version:  7
     \\/     M anipulation  |
\*---------------------------------------------------------------------------*/
FoamFile
{
    version     2.0;
    format      ascii;
    class       volVectorField;
    location    "8.75";
    object      wallShearStress;
}
// * * * * * * * * * * * * * * * * * * * * * * * * * * * * * * * * * * * * * //

dimensions      [0 2 -2 0 0 0 0];

internalField   uniform (0 0 0);

boundaryField
{
    outlet1
    {
        type            calculated;
        value           uniform (0 0 0);
    }
    Wall
    {
        type            calculated;
        value           nonuniform List<vector> 
40276
(
(0.000426956 4.94979e-05 0.000168128)
(-0.000186884 -8.60796e-06 0.000415454)
(-0.00019061 -7.85138e-06 0.000407402)
(9.14732e-05 -6.28855e-06 0.000156523)
(7.90712e-05 2.40492e-05 0.000155856)
(8.36487e-05 5.88292e-05 0.000162415)
(9.85061e-05 4.18019e-05 0.000170777)
(0.000131532 3.69957e-05 0.000183048)
(0.000101756 2.60178e-05 0.000164876)
(9.90108e-05 6.20878e-06 0.000170297)
(0.00038501 3.82028e-05 0.000407963)
(0.000465392 1.55523e-05 0.000442289)
(0.000585039 4.00175e-05 0.000940403)
(0.000562788 3.82113e-05 0.000870753)
(0.000487031 -1.56899e-05 0.000334144)
(0.00043532 1.59038e-06 0.000363298)
(0.000393821 2.03754e-05 5.67628e-05)
(0.000351933 2.34131e-05 2.32471e-05)
(-0.000112979 -1.13941e-05 -0.000174502)
(-0.000122192 -3.77375e-05 -0.00019455)
(-0.000155718 3.9318e-05 0.000211247)
(-0.000186838 4.43693e-05 0.000198084)
(-0.00011997 3.22385e-05 6.77309e-05)
(-0.000138833 2.96478e-05 6.40438e-05)
(-0.000100028 2.37042e-05 4.31842e-05)
(-0.000112279 2.47498e-05 3.74032e-05)
(-0.000123828 4.10469e-05 2.19182e-05)
(-0.000121287 4.14686e-05 1.60371e-05)
(-0.000182054 5.87848e-05 3.2903e-05)
(-0.000163418 5.04467e-05 2.3986e-05)
(-0.00012048 3.92723e-05 7.09517e-05)
(-0.000134808 4.70679e-05 7.83328e-05)
(-5.25596e-05 -3.17406e-06 0.000159639)
(-4.68029e-05 -4.86215e-06 0.00014837)
(-6.2769e-05 1.02876e-05 8.12212e-06)
(-6.16209e-05 1.16832e-05 7.66792e-06)
(0.00056567 6.65471e-05 0.000216624)
(0.000615017 4.86015e-05 0.000240211)
(0.00105422 0.000255141 0.000405812)
(0.00119148 0.000326941 0.000426984)
(0.000989946 6.3987e-05 0.00016639)
(0.000951345 3.64089e-05 0.000193577)
(-5.06027e-05 -1.42282e-05 -0.000383517)
(-3.0725e-05 -1.07713e-05 -0.000347222)
(-5.35485e-05 -2.16434e-06 -0.000348911)
(-4.50697e-05 -6.10471e-06 -0.000286235)
(-7.34722e-05 -3.99138e-07 -0.000294286)
(-5.61363e-05 -3.15768e-06 -0.000237062)
(-6.47228e-05 -8.30687e-07 -0.000203596)
(-6.28401e-05 1.01477e-06 -0.000168779)
(-5.14152e-05 -1.1323e-06 -0.000137812)
(-6.32918e-05 1.31107e-06 -0.000144644)
(-5.45411e-05 -1.67914e-07 -0.000114883)
(-5.7663e-05 2.13415e-06 -0.000116268)
(0.000441705 8.1385e-05 0.0002618)
(0.000459965 9.54259e-05 0.000231002)
(-1.67651e-05 1.29772e-05 0.000130212)
(6.41294e-05 2.2017e-05 0.000191121)
(-9.61216e-06 8.37167e-06 0.000132803)
(-0.000450367 -0.000151901 -0.000430946)
(-0.000479702 -0.000126526 -0.000441608)
(1.9065e-05 3.45607e-05 0.000291603)
(-1.27959e-05 -1.18164e-05 0.000225392)
(1.06547e-05 -1.06978e-06 -4.74221e-05)
(1.34845e-05 2.91047e-06 -4.44113e-05)
(6.69075e-06 -1.58679e-08 -4.33681e-05)
(2.03357e-06 -2.73049e-06 -4.18561e-05)
(1.16592e-05 5.55436e-08 -4.43481e-05)
(-0.000116094 -1.91304e-05 -0.000105663)
(-0.000127988 -8.69092e-06 -0.00011472)
(-5.20424e-05 4.14218e-06 -9.44075e-05)
(-5.29906e-05 1.04561e-07 -9.61467e-05)
(-1.73025e-05 1.29515e-06 -1.74586e-05)
(-1.72871e-05 1.31287e-06 -1.72808e-05)
(-1.56696e-05 1.36757e-06 -1.69997e-05)
(-1.48078e-05 1.67077e-06 -1.6372e-05)
(-1.68952e-05 7.62844e-07 -1.68177e-05)
(2.38367e-05 -1.7489e-06 -5.41317e-06)
(2.06849e-05 -1.8012e-06 -9.25919e-06)
(-1.112e-06 4.43085e-06 2.99618e-07)
(-3.89741e-07 -2.32381e-07 2.24769e-07)
(7.58903e-06 -1.16763e-06 -3.97078e-07)
(1.84648e-05 1.19301e-08 1.2684e-05)
(1.79022e-05 2.57868e-07 1.30173e-05)
(2.85532e-05 -1.39952e-06 2.00977e-05)
(5.85853e-06 5.09987e-07 -3.84965e-05)
(1.427e-06 -1.89242e-06 -3.68342e-05)
(4.67226e-06 9.78541e-07 -3.37455e-05)
(2.57676e-05 -1.63695e-06 1.86258e-05)
(2.45989e-05 -1.19042e-06 1.77286e-05)
(2.10968e-05 -6.25675e-07 1.56894e-05)
(-4.43668e-05 -4.58216e-06 -4.01529e-05)
(4.16376e-07 -1.18174e-06 -3.23633e-05)
(3.51633e-06 1.29294e-06 -2.96957e-05)
(-2.93746e-07 -5.95697e-07 -2.86292e-05)
(-9.7465e-07 -3.40748e-07 -2.51765e-05)
(-1.59189e-06 5.3783e-08 -2.21802e-05)
(-2.42269e-06 2.18743e-07 -2.01174e-05)
(-5.80541e-06 -3.33588e-07 -1.62376e-05)
(-6.46639e-06 -1.25945e-07 -1.53238e-05)
(-7.30228e-06 1.05022e-09 -1.49392e-05)
(-1.0289e-05 -2.98225e-07 -1.49186e-05)
(-1.05049e-05 -2.18245e-07 -1.52889e-05)
(-4.98153e-05 -9.77541e-07 -4.37011e-05)
(-1.07749e-05 -3.09363e-08 -1.61154e-05)
(-1.88925e-05 -3.47914e-06 -2.30588e-05)
(-1.57484e-05 -3.46078e-06 -1.84298e-05)
(-1.06176e-05 -1.27599e-07 -1.66734e-05)
(-1.0523e-05 3.81683e-08 -1.76819e-05)
(-1.01433e-05 -5.75554e-07 -1.8003e-05)
(-1.03262e-05 4.19579e-08 -1.91186e-05)
(-9.78687e-06 -6.35188e-07 -1.98693e-05)
(-9.19107e-06 -2.80025e-07 -2.02764e-05)
(-8.95334e-06 -1.08346e-06 -2.18041e-05)
(-8.61694e-06 -1.70536e-06 -2.04338e-05)
(4.14205e-06 -8.94253e-07 -2.65111e-05)
(4.02426e-06 -2.89958e-06 -2.78394e-05)
(2.5757e-06 -2.90856e-06 -2.62662e-05)
(-0.000277172 -6.29532e-05 0.000486845)
(-0.000280241 -6.14531e-05 0.000441432)
(-1.52637e-05 -1.24509e-06 5.37952e-06)
(-1.26384e-05 -1.41491e-06 6.54369e-06)
(-4.19165e-05 -1.75839e-06 1.61197e-05)
(-3.63282e-05 -3.096e-06 1.50042e-05)
(-4.3835e-06 -8.16865e-06 -5.4253e-06)
(-2.07535e-06 -8.05711e-06 -2.66831e-06)
(-0.000127342 2.51874e-05 0.000183849)
(-0.000110586 3.38973e-05 0.000156381)
(-0.000160173 -1.78966e-05 0.000274252)
(-0.000139949 -2.39628e-05 0.000236075)
(-0.000102793 -6.23451e-06 0.000172592)
(-8.99337e-05 -9.28655e-06 0.000148544)
(-0.00015606 9.35638e-05 0.000465982)
(-0.000216191 0.000169265 0.000650992)
(7.27077e-06 -1.18169e-05 0.000188479)
(-1.40287e-06 -4.55879e-06 0.000159292)
(-0.000102181 2.75852e-05 0.000192877)
(-5.58374e-05 1.34841e-06 0.000167306)
(-0.000179806 -5.74582e-05 0.00048995)
(-0.000179405 -4.06487e-05 0.000490685)
(-0.000179271 -4.54882e-05 0.000525033)
(-0.000194901 -2.17486e-05 0.000526491)
(-0.000559642 1.7351e-06 -0.000151355)
(-0.000642196 2.45056e-06 -0.000183528)
(-2.27552e-05 -7.96787e-05 9.95785e-06)
(-2.65493e-05 -7.89426e-05 1.19239e-05)
(-2.14382e-05 -4.38686e-05 6.54897e-05)
(-2.52026e-05 -5.36575e-05 8.18297e-05)
(-2.90433e-05 -5.25534e-05 6.60882e-05)
(-2.32125e-05 -4.04572e-05 5.37497e-05)
(-1.54685e-05 -8.61463e-05 8.48782e-06)
(-1.98958e-05 -9.83539e-05 6.53325e-06)
(-2.34945e-05 -8.34771e-05 8.81933e-06)
(-2.18822e-05 -8.64848e-05 9.21273e-06)
(-2.31358e-05 -0.000128636 -1.56103e-05)
(-1.99742e-05 -0.000111411 -1.41258e-05)
(-7.64286e-06 -5.66219e-05 -3.31689e-06)
(-9.87875e-06 -5.05372e-05 -4.75771e-06)
(-6.09889e-05 -3.12508e-05 9.456e-05)
(-5.57768e-05 -3.30765e-05 8.93602e-05)
(9.05005e-05 3.79576e-06 -0.00023354)
(9.86567e-05 -5.13424e-06 -0.000218243)
(-0.00013715 -5.95226e-05 -1.25077e-05)
(-0.000135974 -6.65109e-05 -1.47023e-05)
(-0.000297993 -4.79711e-05 0.000147177)
(-0.00031986 -5.21012e-05 0.000138625)
(-0.000291646 -7.4716e-05 -2.60528e-05)
(-0.000285031 -6.19224e-05 -3.52622e-05)
(-0.000174339 0.000192845 0.000237365)
(-0.000168245 0.000241401 0.000220486)
(-0.000248948 -4.48323e-05 1.31657e-05)
(-0.000131108 -4.67492e-05 -1.84832e-05)
(-0.000206722 -7.74463e-05 7.46677e-05)
(-0.000178108 -7.58677e-05 6.31406e-05)
(-0.000227593 -5.18888e-05 5.88163e-05)
(-6.74121e-05 -4.22672e-05 -7.10718e-06)
(-3.91062e-05 -2.09136e-05 6.05061e-05)
(-3.22263e-05 -1.93916e-05 5.58601e-05)
(0.000540944 -0.000210654 0.000410537)
(0.000497559 -0.000185822 0.000343208)
(0.000476564 -0.000263404 0.000227307)
(0.000452042 -0.000196189 0.000257729)
(0.000460228 -0.000226537 0.000256411)
(0.000228245 -0.000143393 0.000185144)
(0.00032243 -0.000201266 0.000216218)
(0.000252174 -0.000145841 0.000199927)
(0.000420126 -0.000187353 0.000346845)
(0.000441785 -0.000229332 0.000329895)
(0.00043748 -0.00022563 0.000287711)
(0.000335705 -0.000221028 0.000188845)
(0.000439884 -0.000272628 0.00018872)
(0.00036654 -0.000199431 0.000242921)
(0.000136598 -6.63568e-05 0.000160037)
(0.000221748 -0.000144693 0.000184869)
(0.000170631 -8.29637e-05 0.000179957)
(0.000126268 -5.08257e-05 0.000164188)
(7.30249e-05 4.9973e-05 0.000155792)
(0.000288763 0.000112922 3.98827e-05)
(0.000350483 0.000112037 9.20644e-05)
(0.00029957 7.47757e-05 0.000104908)
(0.000317279 5.94076e-05 4.3457e-05)
(0.000378053 6.33201e-05 9.55042e-05)
(0.000341529 9.98969e-05 8.56524e-05)
(0.000306656 7.4645e-05 6.27655e-05)
(9.70765e-05 5.53122e-05 8.2797e-05)
(0.000114531 6.59925e-05 8.25448e-05)
(8.9585e-05 1.36359e-05 0.000135692)
(9.40191e-05 1.96638e-05 0.000134167)
(0.000106592 1.16272e-05 0.000157535)
(8.8246e-05 2.21171e-06 0.000142044)
(9.98351e-05 3.62801e-05 0.000131304)
(8.01973e-05 3.69111e-05 9.98e-05)
(7.86482e-05 4.05695e-05 7.26824e-05)
(7.25875e-05 2.13764e-05 9.01565e-05)
(6.59273e-05 1.0062e-05 0.000105362)
(5.12468e-05 2.40516e-06 8.35774e-05)
(6.48672e-05 -2.61807e-06 0.000101699)
(5.58468e-05 1.86464e-05 7.02527e-05)
(4.85153e-05 1.65932e-05 6.00802e-05)
(5.20325e-05 1.53355e-05 6.83934e-05)
(0.00015458 9.39326e-05 4.16886e-05)
(0.000186779 0.000103868 6.15347e-05)
(0.000191122 9.37649e-05 7.27916e-05)
(0.000183092 8.86241e-05 4.16329e-05)
(0.000113548 6.81137e-05 7.03762e-05)
(0.000131193 7.74033e-05 4.5831e-05)
(0.000140363 8.31267e-05 2.5848e-05)
(0.000143074 7.07427e-05 3.75796e-05)
(0.000124624 6.86752e-05 4.1951e-05)
(0.000272354 0.000111795 3.24888e-05)
(0.000224411 0.000106323 3.00007e-05)
(0.000289313 0.000102641 4.68053e-05)
(0.000263119 7.45171e-05 3.19731e-05)
(0.000235195 9.82977e-05 1.84242e-05)
(0.000215332 7.39393e-05 2.46181e-05)
(8.05769e-05 4.91045e-05 4.93771e-05)
(8.69558e-05 4.68395e-05 5.55289e-05)
(6.92344e-05 3.51938e-05 6.19465e-05)
(0.00010652 6.59412e-05 4.29455e-05)
(5.97702e-05 2.89518e-05 5.43915e-05)
(7.18209e-05 4.4801e-05 3.34237e-05)
(0.000118162 6.45728e-05 5.29255e-05)
(0.000155047 8.09788e-05 2.14627e-05)
(7.71958e-05 5.21556e-05 6.77859e-06)
(8.96262e-05 4.94466e-05 2.49355e-05)
(7.8525e-05 5.12192e-05 1.90608e-05)
(0.000141593 8.39641e-05 4.72371e-06)
(0.000173048 8.74912e-05 -1.7184e-05)
(0.000156562 6.0953e-05 2.0647e-05)
(0.000151996 7.51963e-05 7.85842e-06)
(0.00031535 2.84063e-05 0.000551361)
(0.000353435 5.73311e-05 0.000640913)
(0.000321356 -1.33369e-06 0.000573252)
(0.000333059 2.90213e-05 0.000589439)
(0.000353203 9.87199e-05 0.000391652)
(0.000381273 0.00010377 0.000464733)
(0.000273391 9.39206e-05 0.000382371)
(0.000298096 8.81031e-05 0.000437635)
(0.000294638 0.000106041 0.000439698)
(0.000276013 8.77292e-05 0.000451976)
(0.000391029 0.000156533 0.000504188)
(0.000327688 0.000132356 0.00037827)
(0.000372634 0.00013779 0.00047112)
(0.000237187 8.98432e-05 0.000383771)
(0.000317641 0.000115532 0.00047929)
(0.000403786 0.000129034 0.0003803)
(0.00036313 0.000134487 0.000449845)
(0.00035561 0.000131029 0.000450317)
(0.00041058 0.00013568 0.000560745)
(0.000426023 0.000169694 0.000495599)
(0.000469202 0.000183715 0.000492992)
(0.000461997 0.000192119 0.000465969)
(0.000451142 0.00015914 0.000556656)
(0.000435662 0.000163722 0.000556515)
(0.000394821 7.22103e-05 0.000460006)
(0.000505941 7.76746e-05 0.000491573)
(0.000387913 9.12827e-05 0.000473431)
(0.000301068 9.35325e-05 0.000371082)
(0.000379925 9.00162e-05 0.000462795)
(0.000415162 6.99579e-05 0.000403391)
(0.000311553 5.53179e-05 0.000303364)
(0.000336978 0.000101137 0.00036454)
(0.000360971 8.31038e-05 0.000353002)
(0.000365236 9.31727e-05 0.000344961)
(0.000487921 -4.15992e-05 0.000426661)
(0.000502035 -5.93617e-05 0.000424334)
(0.000512963 -0.000136418 0.000412683)
(0.000401783 -6.21358e-05 0.00036853)
(0.000483094 -0.000117009 0.000324811)
(0.000379679 -9.24237e-06 0.000339258)
(0.000526804 -0.000127044 0.000353631)
(0.000361617 -2.77479e-05 0.000292135)
(0.000466 -9.73237e-05 0.000284739)
(0.000543943 -0.000205253 0.00027079)
(0.000340989 5.74903e-05 0.000354303)
(0.000340579 8.5491e-05 0.000372604)
(0.000379707 2.47531e-05 0.000311001)
(0.000377537 6.39382e-05 0.000328539)
(0.000394841 0.000141972 0.000376077)
(0.000429494 0.000148126 0.000508664)
(0.000427196 0.000146021 0.000455908)
(0.000441235 0.000126957 0.000370326)
(0.000497016 0.000162056 0.000414274)
(0.000496908 0.000190063 0.000522642)
(0.000447473 0.000158613 0.000521898)
(0.000472548 0.000155982 0.000550828)
(0.000471354 0.000172313 0.000397396)
(0.000451361 0.000158813 0.000523362)
(0.000451559 0.000163987 0.000521947)
(0.000572798 0.000208544 0.000656393)
(0.000546089 0.000195864 0.000512204)
(0.000401341 0.000116517 0.000368491)
(0.000569215 0.000179324 0.000420519)
(0.00045185 0.000104289 0.000392613)
(0.000580929 0.00014677 0.000398942)
(0.0005133 0.000178026 0.000439182)
(0.000517887 0.000162819 0.00051073)
(0.000694373 0.000261651 0.000523532)
(0.000549942 0.00018678 0.000433213)
(0.000525106 0.000159504 0.000456384)
(0.00073469 0.000258547 0.000483722)
(0.000568267 0.000245773 0.000484041)
(0.000604654 0.000209364 0.000591454)
(0.000559921 0.000182278 0.000624639)
(0.000662817 0.000226174 0.000620911)
(0.000660223 0.000231388 0.000599515)
(0.000350356 0.000140684 0.000455957)
(0.000341836 0.000131391 0.000450053)
(0.000235069 7.07498e-05 0.000425251)
(0.000338811 0.000128817 0.000488262)
(0.000426239 0.000121591 0.000632027)
(0.000389906 0.000112001 0.000580252)
(0.000378617 0.000146865 0.000491982)
(0.000398128 0.000154841 0.000510895)
(0.000381244 0.000147871 0.00056018)
(0.000362631 6.26068e-05 0.000648257)
(0.00031331 4.3419e-05 0.000580005)
(0.000367816 0.000109012 0.000607946)
(0.00035058 9.56244e-05 0.000603509)
(0.000313621 4.27775e-05 0.000507616)
(0.000424667 0.000170965 0.000538334)
(0.000449511 0.00013938 0.000627997)
(0.000401029 0.000122856 0.000611186)
(0.000386617 -4.84147e-06 0.000638225)
(0.000476121 0.000144729 0.00071138)
(0.000357971 6.00842e-05 0.000604739)
(0.00046384 0.000186829 0.000524138)
(0.000502718 0.000195639 0.000562425)
(0.000447744 0.000141536 0.000624482)
(0.000438604 0.000176144 0.000559719)
(0.000506836 0.000205122 0.000563376)
(0.000503563 0.00012773 0.000695281)
(0.000513911 0.00014525 0.000782773)
(0.000409683 4.83618e-05 0.000674617)
(0.000375818 4.6332e-05 0.000615184)
(0.000407756 7.81231e-05 0.000649239)
(0.000463068 0.000130261 0.000690228)
(0.000395373 7.48314e-05 0.000607555)
(0.00051437 0.000220033 0.000602322)
(0.000513058 0.000106071 0.000750234)
(0.000593048 0.000191902 0.00085277)
(0.000282379 1.17279e-05 0.000493046)
(0.000293561 5.55162e-05 0.000501783)
(0.000358116 0.000131903 0.000560343)
(0.000376905 8.38515e-05 0.00063839)
(0.000355221 2.62538e-05 0.000589059)
(0.00043809 9.36925e-05 0.000695766)
(0.000336249 -1.21852e-05 0.000568591)
(0.000338272 4.03544e-05 0.000559761)
(0.000431657 0.000143495 0.000678629)
(0.000360306 4.5912e-05 0.000613151)
(0.000315185 3.71225e-05 0.000528916)
(0.000383558 -4.70422e-06 0.000632902)
(0.000333176 4.29381e-05 0.000559581)
(0.000354238 4.59995e-05 0.000584121)
(0.000430606 4.28464e-05 0.000703499)
(0.000336504 8.75124e-05 0.000578691)
(0.000335377 5.99326e-05 0.000565402)
(0.000427884 -5.76324e-05 0.000655972)
(0.000479391 0.000129242 0.000754718)
(0.000412379 -2.12877e-05 0.000694231)
(0.000524622 6.5606e-05 0.000857869)
(0.000400533 1.28016e-05 0.000669159)
(0.000420753 3.55397e-05 0.000685519)
(0.00053006 0.00016005 0.000769763)
(0.000424939 5.37008e-05 0.000679414)
(0.00048571 3.52746e-05 0.000773341)
(0.000523355 4.51743e-05 0.000857647)
(0.000533462 1.93426e-05 0.000856416)
(0.000420772 3.55635e-05 0.000674414)
(0.000475845 4.15079e-05 0.000755048)
(0.000425476 1.49357e-05 0.000675723)
(0.000485429 4.91169e-05 0.000768222)
(0.000547888 0.000176543 0.000684615)
(0.000536188 0.00019318 0.000612257)
(-2.10029e-05 -4.91061e-05 0.000160194)
(0.000566704 0.000154907 0.000774971)
(0.000492952 0.000140494 0.000663553)
(0.000616027 0.000228185 0.00066354)
(0.000575202 0.000222441 0.000599801)
(0.000610448 0.000215309 0.000673477)
(-2.52602e-05 -4.87814e-05 0.000159635)
(0.000544286 0.000173707 0.000710168)
(0.000564289 0.000209214 0.000657079)
(0.000611543 0.000230092 0.000684956)
(0.000556283 0.000168918 0.000764426)
(0.000625545 0.000178983 0.000912592)
(-2.29013e-05 -4.85635e-05 0.000156916)
(0.000469388 7.31681e-05 0.00072774)
(0.000433793 6.35161e-05 0.000710597)
(0.000467563 9.75247e-05 0.000705743)
(0.000527082 6.00085e-05 0.000796035)
(0.000464471 0.000107642 0.000702848)
(-2.5371e-05 -3.80769e-05 0.000159927)
(0.000576404 0.000236867 0.000662874)
(0.000594928 0.00012196 0.000837126)
(0.00068225 0.000217336 0.000930068)
(0.000656624 0.000219755 0.000773157)
(0.000715289 0.0002527 0.000647665)
(0.000772002 0.000285047 0.00065583)
(0.00064623 0.0001912 0.0008329)
(0.000604721 0.000176044 0.000745252)
(0.000633953 0.00025801 0.000626466)
(0.000667677 0.000237641 0.000678522)
(0.000642344 0.000204143 0.000758695)
(0.00071195 0.000245582 0.000809321)
(0.000736979 0.000283487 0.000775746)
(0.000657735 0.000205016 0.000836341)
(0.000684967 0.000172047 0.000940427)
(0.000561976 0.000138192 0.000782908)
(0.000625993 0.000139899 0.000973882)
(0.000509524 0.000105382 0.000751679)
(0.000587209 8.10938e-05 0.000888464)
(0.000729908 0.0002415 0.000924954)
(0.000606174 0.000196757 0.000765334)
(0.000644878 0.000168778 0.000920173)
(0.000536873 8.97749e-05 0.000866339)
(0.000556781 0.000150426 0.000787553)
(0.000728173 0.000132034 0.00102225)
(0.000640668 0.000146519 0.000994541)
(0.000591268 6.59364e-05 0.000949379)
(0.000592693 1.9802e-05 0.000944077)
(0.000474777 2.93597e-05 0.000788008)
(0.00046738 6.59923e-05 0.000733568)
(0.00060201 0.000119789 0.000871334)
(0.000614361 0.000126419 0.000960195)
(0.000577373 2.75475e-05 0.000904585)
(0.000593179 3.8088e-05 0.000934349)
(0.000602543 -3.96713e-05 0.000936526)
(0.000584206 3.85943e-05 0.000894324)
(0.000668828 0.000131955 0.00097118)
(-3.13437e-05 -4.31747e-05 0.000168312)
(0.000500818 -2.429e-06 0.000820557)
(0.00045582 5.66433e-05 0.000717978)
(0.000649195 0.000149785 0.000956728)
(0.000675664 0.000189616 0.00101284)
(0.000564727 -1.85915e-06 0.000943896)
(0.000702545 6.23491e-05 0.00110974)
(0.000525788 4.08557e-05 0.000827455)
(0.0006494 2.92677e-05 0.000996217)
(0.000519041 5.15563e-05 0.00082128)
(0.000500028 -1.97051e-05 0.000761558)
(0.000642417 -9.06069e-05 0.000952474)
(0.000687754 3.1401e-05 0.0010903)
(0.000688615 -1.38078e-07 0.00107942)
(0.000368256 -5.0763e-05 0.000536096)
(0.000290255 2.01452e-05 0.000450547)
(0.000325152 9.89928e-06 0.00046727)
(0.000314658 1.00943e-05 0.000481842)
(0.000226293 4.1033e-05 0.000404823)
(0.000300671 2.83248e-05 0.000466123)
(0.000384432 3.21047e-06 0.000500015)
(0.000301488 4.69129e-05 0.000471442)
(0.000350053 4.50329e-05 0.000621947)
(0.000351715 6.21785e-05 0.00059659)
(-2.31141e-05 -4.18156e-05 0.000153495)
(-2.67815e-05 -4.38479e-05 0.000160392)
(-2.47823e-05 -4.05152e-05 0.000148574)
(-2.62647e-05 -3.68376e-05 0.000149436)
(0.000392851 3.3286e-05 0.000614778)
(0.000355494 7.56492e-05 0.000563744)
(0.000423496 1.48855e-05 0.000568482)
(0.000380053 3.22559e-05 0.000511239)
(0.00039808 -1.32295e-05 0.000513853)
(0.000394764 3.86349e-06 0.000485018)
(-2.97057e-05 -3.62276e-05 0.00015481)
(0.000416939 2.0014e-06 0.000537161)
(-3.50277e-05 -2.89006e-05 0.000164885)
(-3.01213e-05 -3.46094e-05 0.000155902)
(0.000448254 1.15128e-05 0.000222737)
(0.000445789 1.55636e-05 0.000271264)
(0.000424553 -1.47455e-05 0.000257485)
(-3.3461e-05 -3.44533e-05 0.000153929)
(-2.65135e-05 -3.83297e-05 0.000164555)
(-2.59096e-05 -4.18692e-05 0.000161099)
(-3.23125e-05 -3.37744e-05 0.000174991)
(-3.38529e-05 -4.23102e-05 0.000182594)
(-2.96965e-05 -3.02982e-05 0.000166605)
(-2.85607e-05 -2.62511e-05 0.00015941)
(-3.46578e-05 -3.44911e-05 0.000158998)
(0.000396924 6.35027e-05 7.1253e-05)
(0.000458023 6.41118e-05 0.000137079)
(0.000376747 3.26395e-05 7.94976e-05)
(0.000362116 6.64014e-05 5.71558e-05)
(0.000377382 4.66668e-05 8.07913e-05)
(0.000438912 1.04961e-05 0.000124967)
(0.000424532 1.18953e-05 0.000187208)
(0.000450551 -3.12198e-05 0.000195477)
(0.000444434 -1.23925e-07 0.000161603)
(0.000424565 -1.06624e-06 0.000203885)
(0.000413422 2.82358e-05 8.78501e-05)
(0.00043116 -9.33165e-06 9.44276e-05)
(0.000438225 -9.45863e-06 0.000386842)
(0.000415984 5.3699e-06 0.000421771)
(0.0004023 -2.40071e-06 0.000438646)
(0.000364278 5.48544e-06 0.000421791)
(0.00039564 3.21484e-06 0.000463301)
(0.000332763 2.47966e-05 0.000430869)
(0.000464368 -5.31538e-06 0.000415601)
(0.000470511 -2.61798e-05 0.00035574)
(0.000474719 -1.56799e-05 0.000341172)
(0.000414907 -5.06981e-06 0.000355146)
(0.000393969 -2.33427e-05 0.000444727)
(0.000409524 -1.51473e-05 0.000399699)
(0.000435485 2.22184e-05 0.000516015)
(0.000503884 -3.69504e-05 0.00024787)
(0.000464218 -5.26831e-05 0.000333019)
(0.000475285 -5.39131e-05 0.000279915)
(0.000488706 -3.51217e-05 0.000354006)
(0.000523977 -8.86884e-05 0.000227833)
(0.000462447 -5.06329e-05 0.000385867)
(0.00042967 -4.43482e-05 0.000449218)
(0.000469759 -7.21729e-05 0.00043044)
(0.000473533 -1.60844e-05 0.000520399)
(0.000555262 -0.000103902 0.000408781)
(0.000513759 -0.000103496 0.000337008)
(0.000526115 -9.34016e-05 0.000273449)
(0.000510689 -7.01562e-05 0.0003434)
(0.000457728 -5.05196e-05 0.000176675)
(0.0004549 -4.12865e-05 0.000140754)
(0.00048668 -4.45597e-05 0.000181334)
(0.000334016 7.50517e-05 2.73353e-05)
(0.000343815 5.71099e-05 5.43701e-05)
(0.000297057 8.39749e-05 6.20821e-06)
(0.000320807 6.98333e-05 2.47869e-05)
(0.000364772 3.09119e-05 4.64892e-05)
(0.000409724 -2.06127e-06 6.90744e-05)
(0.000336527 4.53235e-05 4.58261e-05)
(0.000227926 8.29404e-05 -4.45502e-06)
(0.000309827 8.96442e-05 1.22817e-05)
(0.000144417 7.10032e-05 3.68854e-05)
(0.00015498 6.77035e-05 1.30718e-05)
(0.000256717 9.73302e-05 6.49235e-06)
(0.000270698 7.1954e-05 4.16286e-05)
(0.000248897 3.98777e-05 -1.77057e-05)
(0.00029157 4.84188e-05 2.58903e-05)
(0.000350445 3.77649e-05 1.79306e-05)
(0.000246725 7.68536e-05 4.9572e-06)
(0.000235996 5.48634e-05 9.97339e-06)
(0.000313719 5.44206e-05 1.63611e-05)
(0.000588042 -0.000139037 0.000192705)
(0.00057104 -0.000142209 0.000347856)
(0.000558662 -0.00013959 0.000274793)
(0.000583316 -0.000128512 0.000352272)
(0.00046596 -3.0832e-05 0.000108199)
(0.000508245 -0.000104421 0.000172591)
(0.000467772 -5.48032e-05 0.000150295)
(0.000472067 -7.61558e-05 0.000153248)
(0.000422284 -1.80885e-05 6.57965e-05)
(0.000457887 -6.00638e-05 0.000100087)
(0.000544347 -0.000111877 0.000136894)
(0.000588521 -0.000131335 0.000171311)
(0.000616732 -0.000199665 0.000241924)
(0.000578959 -0.000138486 0.000164234)
(0.00055404 -0.000147816 0.000194339)
(0.000386473 1.61785e-05 4.00395e-05)
(0.000397671 -8.64733e-06 3.8593e-05)
(0.000427371 -5.83353e-05 9.52974e-05)
(0.000399165 -8.55543e-06 6.87022e-05)
(0.000415322 -3.64776e-05 5.72622e-05)
(0.000328171 3.33289e-05 4.42077e-05)
(0.000375184 -5.25272e-06 4.074e-05)
(0.000552981 -0.000103806 9.83709e-05)
(0.000583808 -0.000159467 0.000115571)
(0.000602806 -0.000159347 0.000107501)
(0.000465661 -7.04103e-05 0.000108865)
(0.000428503 -3.28196e-05 0.000122023)
(0.000477748 -7.00679e-05 8.80068e-05)
(0.000308539 5.44372e-05 0.000527261)
(0.000327117 3.56338e-05 0.000543935)
(0.000370306 -1.52986e-05 0.00058099)
(0.000369003 7.2912e-06 0.000573022)
(0.000315075 7.37817e-05 0.000532268)
(0.000357285 7.42939e-06 0.000541152)
(0.000456332 -2.70444e-05 0.000680654)
(0.000326986 2.80144e-05 0.000534705)
(0.000358367 1.51813e-05 0.000553926)
(0.000415427 2.55224e-05 0.000639629)
(0.000406846 -1.34914e-05 0.000563712)
(0.000374007 1.06695e-05 0.000527587)
(0.000418635 1.62464e-05 0.000599377)
(0.000485589 -1.88293e-05 0.000689615)
(0.000492015 1.88836e-05 0.000809952)
(0.0003693 4.86689e-05 0.000591703)
(0.00042352 4.87969e-05 0.0006852)
(0.000405882 5.07149e-05 0.000679046)
(0.000434177 1.78881e-06 0.000666102)
(0.00057608 -6.95082e-05 0.000813964)
(0.00053288 -0.000118032 0.000710353)
(0.000441542 6.15843e-05 0.0007182)
(0.000461731 -1.63222e-05 0.000679295)
(0.000414529 3.80079e-06 0.000582718)
(0.000468519 5.4225e-06 0.000666075)
(0.000457073 -4.22874e-05 0.00056783)
(0.000414621 -3.3597e-05 0.000492208)
(0.000465178 -1.52832e-05 0.00059143)
(-3.62036e-05 -2.99851e-05 0.000160877)
(0.000531974 -0.000114445 0.000632717)
(0.000503245 -8.30113e-05 0.000534116)
(0.00054658 -3.2959e-05 0.000662919)
(0.000432122 -2.64963e-05 0.000616137)
(0.000501944 -6.02668e-05 0.000633972)
(0.00056991 -4.66476e-05 0.000743693)
(0.000520793 -0.000111473 0.000521127)
(0.000514435 -0.000103951 0.000435489)
(0.00049881 -4.6831e-05 0.000541492)
(0.000635795 -4.33647e-05 0.000969084)
(0.000444866 2.59753e-06 0.000679501)
(-3.63522e-05 -2.58166e-05 0.000148699)
(0.000475057 -2.6212e-05 0.000676567)
(0.00054964 -1.6831e-05 0.00080123)
(0.000620931 -9.35124e-05 0.000870532)
(0.000636224 -0.000138016 0.000803921)
(0.000468135 -7.1421e-05 0.000579314)
(-4.14676e-05 -2.12592e-05 0.000160452)
(0.000581824 -0.000216412 0.000533103)
(0.000604503 -8.60158e-05 0.000721781)
(0.00061113 -0.000107055 0.000826544)
(0.000542305 -0.000115015 0.000677723)
(0.000602094 -7.35034e-05 0.000793749)
(0.000667257 -0.000152351 0.000770795)
(0.000599942 -0.00014167 0.000613581)
(0.000730266 -0.000254312 0.000780948)
(0.000655246 -0.00026641 0.000600791)
(0.000681464 -0.000183741 0.000757101)
(0.000480685 1.20512e-05 0.000751339)
(0.00048559 -4.37663e-05 0.000707612)
(0.000597289 -5.85506e-05 0.000861228)
(0.000639231 -6.41599e-05 0.000952629)
(0.000628052 -0.000162752 0.000866976)
(0.000577417 1.37941e-05 0.000864653)
(0.000653131 -0.000119839 0.000971503)
(0.000618531 4.95364e-05 0.000962779)
(0.000579675 -7.1788e-05 0.000852714)
(0.000570528 -0.000108636 0.000788211)
(0.00068089 -0.000145114 0.00093326)
(0.000564869 -0.000124764 0.000770225)
(0.000619881 -0.000181735 0.000740381)
(0.000700649 -0.000162626 0.000882307)
(0.000798695 -0.000254249 0.00094107)
(0.000616137 -0.000248437 0.00068876)
(0.000735456 -0.00035634 0.000621371)
(0.000743208 -0.000201693 0.000830529)
(0.000619266 -0.000182603 0.000416881)
(0.000515151 -0.000177627 0.000444269)
(0.000602839 -0.00019387 0.000451761)
(0.000585303 -9.78323e-05 0.000593711)
(0.000641519 -0.000177768 0.000593323)
(0.000643565 -0.000219389 0.000409039)
(0.000592549 -0.000207818 0.000361433)
(0.000661243 -0.000218191 0.000253003)
(0.000597038 -0.00016422 0.00034712)
(0.000690435 -0.000255883 0.000418997)
(0.000705126 -0.000300896 0.000289269)
(0.000685346 -0.000248076 0.000389919)
(0.000713198 -0.000268096 0.000594754)
(-4.41834e-05 -1.70954e-05 0.000158694)
(0.000686739 -0.00031645 0.000437888)
(0.000690331 -0.000236575 0.000583827)
(0.000813238 -0.000384378 0.000697111)
(0.000797051 -0.00041382 0.000471328)
(0.000743925 -0.000281282 0.000640887)
(-4.74706e-05 -1.24115e-05 0.000160003)
(0.000775475 -0.000369386 0.000474795)
(0.00081532 -0.000381964 0.000344436)
(-3.59734e-05 -3.43326e-05 0.000183082)
(0.000708763 -0.000278846 0.000446713)
(0.000641362 -0.000217345 0.00026105)
(-4.00218e-05 -2.70523e-05 0.000186327)
(0.000651661 -0.000194333 0.000220558)
(0.000635256 -0.000209804 0.000226842)
(-3.42639e-05 -3.41633e-05 0.000168399)
(0.000707344 -0.000205548 0.000172574)
(-3.74134e-05 -1.67237e-05 0.000169753)
(-4.06998e-05 -2.86335e-05 0.000183185)
(0.000730186 -0.000327545 0.000244022)
(0.000679626 -0.000245662 0.000218282)
(-4.1853e-05 -2.72128e-05 0.00018284)
(0.000674721 -0.000251998 0.000272351)
(0.000394093 -0.000232906 0.000221133)
(-4.53851e-05 -1.97972e-05 0.000178134)
(0.000458147 -0.000282151 0.000180738)
(0.00036569 -0.000226677 0.000177659)
(-4.44091e-05 -2.04458e-05 0.000182259)
(0.000263581 -0.000167007 0.000181452)
(0.000332228 -0.000217857 0.000184495)
(-4.82976e-05 -1.30696e-05 0.000190958)
(0.000239483 -0.000160792 0.000150716)
(0.000290737 -0.000164236 0.000227972)
(-3.71435e-05 -1.96261e-05 0.000164299)
(-3.36574e-05 -1.74108e-05 0.000151546)
(0.000336311 -0.0002039 0.000179938)
(-3.92814e-05 -2.37969e-05 0.000154008)
(-4.11352e-05 -1.82248e-05 0.000168279)
(0.000161778 -9.50585e-05 0.000148617)
(-3.95899e-05 -1.5852e-05 0.000152874)
(-4.35061e-05 -1.32359e-05 0.000166663)
(0.000221139 -0.000141583 0.000170724)
(-4.21044e-05 -1.26283e-05 0.00015104)
(0.000149407 -9.11084e-05 0.000130563)
(8.0276e-05 -3.4343e-05 9.92263e-05)
(0.000136518 -6.97587e-05 0.000149599)
(9.51817e-05 -3.4398e-05 0.000118409)
(6.33803e-05 -2.13982e-05 8.5538e-05)
(0.000106872 -4.27593e-05 0.000127152)
(7.49739e-05 -4.16577e-05 8.12144e-05)
(0.000164187 -8.26904e-05 0.000168702)
(0.000202851 -0.000111235 0.000168892)
(0.000215818 -0.000179932 8.65665e-05)
(0.000350876 -0.000255718 0.000118582)
(0.00024866 -0.000168085 0.000141614)
(9.28827e-05 -6.85055e-05 6.73149e-05)
(0.00020671 -0.000162348 0.000103336)
(0.00014907 -0.000101129 0.00011459)
(0.000105074 -6.76156e-05 0.000100697)
(0.0001481 -9.18582e-05 0.000132232)