/*--------------------------------*- C++ -*----------------------------------*\
  =========                 |
  \\      /  F ield         | OpenFOAM: The Open Source CFD Toolbox
   \\    /   O peration     | Website:  https://openfoam.org
    \\  /    A nd           | Version:  7
     \\/     M anipulation  |
\*---------------------------------------------------------------------------*/
FoamFile
{
    version     2.0;
    format      ascii;
    class       volScalarField;
    location    "5.5";
    object      p;
}
// * * * * * * * * * * * * * * * * * * * * * * * * * * * * * * * * * * * * * //

dimensions      [0 2 -2 0 0 0 0];

internalField   nonuniform List<scalar> 
382612
(
0.00209788
0.00188953
0.00201683
0.0020202
0.00177718
0.00223968
0.00214097
0.00201909
0.00184097
0.00172015
0.00188817
0.00187585
0.00184898
0.00187807
0.00196393
0.0020982
0.00189258
0.00203273
0.00204211
0.00206434
0.00208597
0.00211422
0.00214245
0.00216787
0.00214704
0.00212152
0.00209752
0.00254173
0.00258951
0.00262957
0.00266278
0.00245138
0.00244367
0.00243353
0.00241598
0.00232247
0.00200251
0.00207306
0.00214082
0.00217536
0.00220453
0.0022306
0.00215674
0.00213897
0.00211571
0.00208707
0.00200175
0.00201737
0.00203962
0.00205808
0.00221025
0.00219099
0.00216843
0.00214433
0.00211001
0.00196636
0.00200644
0.00207503
0.00214302
0.00204389
0.00212177
0.00202601
0.00204814
0.00264226
0.00208316
0.00191068
0.00220336
0.00240118
0.00250348
0.00264816
0.00266772
0.00267087
0.00267261
0.00284356
0.00283311
0.00281915
0.00279249
0.00267961
0.0024581
0.0025715
0.00261562
0.00264499
0.00266563
0.0030111
0.00301789
0.00302508
0.00300456
0.00282939
0.00217953
0.00232143
0.00235681
0.00237421
0.00238577
0.002562
0.00257612
0.00259301
0.00258923
0.00249278
0.00204924
0.00210709
0.00213877
0.0021557
0.00217381
0.00219431
0.00207122
0.00206245
0.0020525
0.0020481
0.00186125
0.00189216
0.00191595
0.00193355
0.00218189
0.00215901
0.002134
0.00210936
0.00207194
0.00174552
0.00184487
0.00187911
0.00189692
0.00190827
0.00207519
0.00205182
0.00202713
0.00200055
0.00192613
0.00167456
0.00184792
0.00200076
0.00202793
0.00203913
0.00204362
0.00225668
0.00226474
0.002276
0.00228601
0.00238926
0.00236414
0.00224557
0.00221623
0.00219723
0.00218358
0.00189945
0.00188827
0.00187488
0.00186495
0.00200047
0.00201816
0.00203246
0.00204234
0.00204317
0.00203592
0.00202575
0.00201802
0.00205774
0.00197232
0.00190567
0.00190641
0.00191463
0.00192079
0.00184837
0.00200307
0.00203562
0.00172171
0.00185527
0.00181703
0.00211317
0.00232795
0.00175659
0.00178383
0.00210958
0.00173954
0.00180931
0.00178845
0.00173085
0.00172967
0.00173904
0.00174466
0.00227861
0.00228991
0.00230811
0.00232902
0.002313
0.00192256
0.00188899
0.00188084
0.00188191
0.00188452
0.00224204
0.00225823
0.00228391
0.00231412
0.00233777
0.00200201
0.00213193
0.00214431
0.00214377
0.00213916
0.00213636
0.00192892
0.00192953
0.00193251
0.00194487
0.00161
0.0016153
0.00162386
0.00162744
0.0019929
0.00199196
0.00199017
0.00199095
0.00202727
0.00162995
0.00162046
0.0020237
0.00192285
0.00158046
0.00181434
0.00197974
0.00167597
0.00196752
0.00193981
0.00166153
0.00154015
0.00187471
0.00191317
0.0017705
0.00157404
0.0018041
0.00194773
0.00200613
0.0020095
0.00197966
0.00184788
0.00170863
0.0020257
0.00193676
0.00200154
0.00205166
0.00197815
0.00200825
0.00213098
0.00212518
0.0019253
0.00195052
0.0019915
0.00200332
0.00201853
0.00203486
0.00220665
0.0022032
0.00219333
0.00215118
0.00243321
0.00240936
0.00239075
0.00237345
0.0028248
0.00281381
0.00280324
0.00277694
0.00263138
0.00252894
0.00245885
0.00247262
0.00248692
0.0024914
0.00249807
0.00215016
0.00215171
0.00214593
0.00213106
0.00214057
0.00262887
0.00259522
0.00260009
0.00261057
0.00261952
0.0024529
0.00243844
0.00241538
0.00239703
0.00241841
0.00266203
0.00261972
0.00261991
0.00263454
0.00264662
0.00286741
0.00286736
0.00286635
0.00285517
0.00277604
0.00268542
0.00281983
0.00285252
0.00286692
0.00287535
0.00331663
0.00332242
0.00332961
0.00330754
0.00311122
0.00231133
0.00234768
0.00236508
0.00238865
0.00240809
0.00247347
0.00246455
0.00245246
0.00242812
0.00231476
0.00210798
0.002197
0.00223348
0.00226002
0.00227783
0.00262986
0.002645
0.00266903
0.0026766
0.00257081
0.00184579
0.00185539
0.00186409
0.00188336
0.00190144
0.00201833
0.00203058
0.0020453
0.00206053
0.00207083
0.00196817
0.00195118
0.00192972
0.00191576
0.00189371
0.00245996
0.00248218
0.00246373
0.00243663
0.00241697
0.0018412
0.00183039
0.00181728
0.00181595
0.00184556
0.00237258
0.00232881
0.00229741
0.00227053
0.00225311
0.00171066
0.00170653
0.00170207
0.00171568
0.00180956
0.00197936
0.00191748
0.00190995
0.00191632
0.00192294
0.00218745
0.00220231
0.00222436
0.00225323
0.00230712
0.00189327
0.00179966
0.00178764
0.00179416
0.00180015
0.00216752
0.00217953
0.002197
0.00221647
0.00222599
0.00198894
0.00204404
0.00204718
0.0020482
0.00204487
0.00204167
0.00194009
0.00193984
0.00194015
0.0019463
0.00176681
0.00176468
0.00176654
0.0017673
0.00197531
0.00197843
0.00198098
0.00198302
0.00199241
0.00178501
0.00203327
0.00197563
0.00196323
0.00196043
0.00195837
0.00189558
0.00205894
0.00216842
0.00211193
0.00209358
0.00208383
0.00207723
0.00195107
0.00195184
0.00195217
0.00195153
0.0020301
0.00202698
0.00202236
0.00201869
0.00204133
0.00204339
0.00204629
0.0020484
0.00200287
0.00200483
0.00200793
0.00200966
0.00217001
0.00217532
0.00218142
0.00218791
0.00221707
0.00201702
0.00205325
0.00208884
0.00212804
0.00192989
0.00203021
0.00199971
0.00184677
0.0017413
0.00196263
0.00196572
0.00176263
0.00213944
0.00211423
0.00207794
0.00209315
0.00195757
0.00203419
0.0020391
0.00211393
0.00210187
0.00220904
0.00221893
0.00217648
0.00216802
0.00216803
0.0021693
0.0022264
0.00222368
0.00221996
0.00221779
0.00222782
0.00231015
0.00230788
0.00230493
0.00230445
0.00230578
0.00224567
0.00224768
0.00225038
0.00225345
0.00226654
0.00210007
0.00206144
0.00206313
0.00206282
0.00206021
0.00205816
0.00210038
0.00209611
0.00209048
0.00208742
0.00202482
0.00202797
0.00203137
0.00203362
0.00203125
0.00203333
0.00203596
0.00203737
0.00203992
0.00202398
0.00221004
0.00218612
0.00218364
0.00218145
0.00217877
0.002195
0.00226314
0.00221699
0.00219598
0.00219922
0.00220616
0.00221112
0.00240004
0.00240018
0.0023988
0.00239092
0.00236841
0.00241075
0.00242661
0.00243135
0.00243416
0.00243638
0.00234254
0.00233902
0.00233455
0.00233175
0.00234229
0.00228368
0.00229501
0.00230198
0.00230423
0.00230531
0.00212962
0.00212282
0.00211446
0.00211049
0.00208523
0.00208595
0.00208363
0.00208166
0.00212697
0.00212705
0.00212696
0.00212493
0.00217105
0.00217194
0.00217592
0.00217901
0.00239862
0.00238915
0.00237627
0.00236016
0.00234001
0.00217973
0.00211596
0.0021109
0.00221449
0.00217571
0.00211178
0.0020713
0.00209812
0.00195131
0.00201709
0.00207088
0.0020751
0.00217644
0.00209673
0.00208735
0.00217318
0.0021182
0.00207806
0.00224473
0.00228356
0.00237524
0.0023913
0.00234966
0.00234382
0.00234808
0.00235489
0.00235976
0.0025036
0.00249791
0.00248897
0.00247617
0.00245547
0.00249076
0.0025141
0.0025233
0.00252873
0.0025319
0.00245095
0.00244812
0.00244295
0.0024342
0.00242734
0.00249369
0.00250971
0.00251817
0.0025221
0.00252446
0.00245802
0.00244706
0.00243259
0.00241542
0.0023839
0.00224664
0.00226837
0.00226908
0.00226721
0.00226576
0.00235143
0.00234093
0.00232829
0.00231129
0.00226238
0.0021719
0.00211354
0.00212459
0.00213025
0.00213125
0.00213129
0.00216008
0.00215518
0.00214956
0.00215084
0.00218374
0.00218878
0.00219499
0.00219969
0.00212751
0.0021273
0.00212725
0.00212611
0.00211867
0.00217963
0.00217498
0.00210744
0.00212173
0.00217692
0.00212316
0.00208291
0.00210862
0.00217239
0.00227943
0.00215303
0.00209731
0.0021698
0.00225789
0.00212333
0.00226813
0.00255078
0.00225603
0.00212413
0.00243222
0.00253386
0.00256283
0.00254506
0.00250441
0.00246673
0.00238487
0.00240645
0.00241829
0.00242382
0.00242686
0.00250893
0.0025056
0.00250174
0.00249627
0.00247655
0.00255969
0.00259189
0.00260197
0.00260775
0.00261196
0.00257287
0.00256507
0.00255445
0.00254129
0.00252321
0.00256161
0.00259803
0.00261153
0.00261867
0.00262342
0.00261264
0.00260795
0.00260089
0.00258824
0.00255131
0.00246085
0.00246459
0.00247246
0.00248206
0.00248969
0.0025336
0.00253029
0.00252561
0.00251547
0.00248462
0.00236152
0.00237137
0.0023795
0.00238627
0.00239079
0.002241
0.00223619
0.00223006
0.00222291
0.00220826
0.00213038
0.00210212
0.00211379
0.00211836
0.0021189
0.00211747
0.0021462
0.00214175
0.0021358
0.00213112
0.002128
0.00213106
0.00213573
0.00214086
0.00209393
0.00209317
0.00208998
0.00208314
0.00207594
0.00212858
0.00222856
0.00223153
0.00223808
0.00224519
0.00225111
0.00219924
0.00219366
0.0021869
0.00218099
0.00217551
0.00208655
0.00206079
0.00207501
0.0020796
0.00208199
0.00208484
0.00211852
0.00211141
0.00210303
0.00209642
0.00210741
0.00210981
0.00211263
0.00211494
0.00209728
0.00209399
0.00209235
0.00208982
0.00207578
0.0021007
0.00210338
0.00206148
0.00207474
0.00209345
0.00206933
0.00203991
0.00210511
0.00215927
0.00219774
0.00210622
0.00209553
0.00211299
0.00213534
0.00208543
0.00201513
0.00195643
0.00224127
0.00212809
0.00220696
0.00232519
0.0023973
0.00221005
0.00216573
0.00229751
0.00201862
0.00202349
0.00208572
0.00217066
0.00210545
0.00207429
0.00208351
0.0021545
0.00219353
0.00211054
0.00206573
0.00201635
0.00227755
0.00225278
0.0023097
0.0023058
0.00233122
0.00230543
0.0022989
0.00229803
0.00229857
0.0022976
0.00229726
0.00229854
0.00230389
0.00230813
0.00239302
0.00240267
0.00240281
0.00240354
0.00240469
0.00231868
0.00231745
0.00231439
0.00230646
0.00229116
0.00225749
0.00224382
0.00223932
0.0022395
0.00224118
0.00235052
0.00234747
0.00234433
0.00234099
0.00232938
0.00240357
0.00242735
0.00243655
0.0024433
0.00244823
0.00253487
0.00253091
0.00252342
0.00250742
0.00247164
0.00247046
0.00250098
0.00251686
0.00252553
0.00253073
0.00260066
0.00259415
0.00258626
0.00257676
0.00255195
0.00254271
0.00256837
0.00257777
0.00258338
0.00258723
0.00251001
0.00250626
0.00250195
0.00249608
0.00247643
0.00241528
0.00241919
0.00242158
0.00242503
0.00242774
0.00232939
0.00232294
0.00231498
0.00231014
0.00231485
0.00232244
0.00234625
0.00235327
0.00235523
0.00235664
0.0022224
0.00222416
0.00222489
0.00222201
0.00220397
0.00220573
0.00222597
0.00222838
0.0022257
0.00222243
0.00207337
0.00206828
0.00206279
0.00206161
0.00207842
0.00208469
0.00208852
0.00209192
0.0020752
0.00207143
0.00206683
0.00205988
0.00205002
0.00206594
0.0020646
0.00206911
0.00207448
0.00207857
0.002113
0.00211392
0.00211441
0.00211473
0.00211518
0.00209536
0.00209597
0.00209657
0.0020973
0.00209777
0.00204261
0.00203815
0.00203252
0.0020289
0.00203046
0.00203498
0.00203888
0.00204277
0.00209811
0.00209438
0.00209228
0.00209014
0.00207598
0.00207355
0.00207604
0.00207926
0.00212731
0.00213136
0.00213663
0.00214157
0.0021452
0.00208849
0.00208532
0.00206705
0.00205629
0.00193117
0.00198484
0.00210083
0.00208556
0.00205693
0.002059
0.0021001
0.00214244
0.00187065
0.00198755
0.00199044
0.00185043
0.00193183
0.00197716
0.00205006
0.00204801
0.00213665
0.00208212
0.00211058
0.00221205
0.00225095
0.00211484
0.00209445
0.00213783
0.00226699
0.00217377
0.0020779
0.00214033
0.00212087
0.00243257
0.00268997
0.00284027
0.00287188
0.0027871
0.00260064
0.00236519
0.00211008
0.00187704
0.00173767
0.00177316
0.00178431
0.00178289
0.00177914
0.00192512
0.00191934
0.00191328
0.00191086
0.00191048
0.00211039
0.00217113
0.00218743
0.00218778
0.00218543
0.00227777
0.00227092
0.00226292
0.00225654
0.00224019
0.00222354
0.0022673
0.0022761
0.00228121
0.00228559
0.00234756
0.00234524
0.0023393
0.00232177
0.00225582
0.00241379
0.00243187
0.00243992
0.0024495
0.00245782
0.00242721
0.00242448
0.00241867
0.00240278
0.0023468
0.00227827
0.00230489
0.0023151
0.00232037
0.00232292
0.00243105
0.00242523
0.00241894
0.00241473
0.00240734
0.00239565
0.00240343
0.00241251
0.00242038
0.00242585
0.00242687
0.00242504
0.00242079
0.00241093
0.0023924
0.00233982
0.00236293
0.00237109
0.00237325
0.00237356
0.00225343
0.00224991
0.00224566
0.00224363
0.00224561
0.00228928
0.00228531
0.00228198
0.00228009
0.00227938
0.00217603
0.00217
0.00216372
0.00216445
0.00219098
0.00216965
0.00216154
0.002164
0.00216781
0.00217039
0.00217515
0.00217918
0.00218544
0.00219264
0.00219401
0.00210303
0.00209091
0.00209266
0.00209532
0.00209693
0.00204016
0.00203829
0.00203537
0.00203436
0.00204953
0.00203974
0.00203407
0.00203465
0.00203539
0.00203502
0.00206183
0.00205846
0.002054
0.00205097
0.00205588
0.00199579
0.00200851
0.00201437
0.00202301
0.00203142
0.00203854
0.00202694
0.0020202
0.00201041
0.00200016
0.00202446
0.00202537
0.0020279
0.00202991
0.00204938
0.00204749
0.00204563
0.00204182
0.00203448
0.00203396
0.00207281
0.00208213
0.00207842
0.00204238
0.00195734
0.00203421
0.00200223
0.0019072
0.00205179
0.00205178
0.00189992
0.00171761
0.00180111
0.00196079
0.00188195
0.00170068
0.00183669
0.0018963
0.00194184
0.00193373
0.0019844
0.00199087
0.00200748
0.00196392
0.00169136
0.00187657
0.00187423
0.00168279
0.00164577
0.00176247
0.00189053
0.00211002
0.00231651
0.00245882
0.00250229
0.00241896
0.00222704
0.00196919
0.00168821
0.00143757
0.00133161
0.00138447
0.00139238
0.00138773
0.00138211
0.0014855
0.00147912
0.00147274
0.00146931
0.00146218
0.0017775
0.0018364
0.00184888
0.00184603
0.00184069
0.00196468
0.00195652
0.00194739
0.00194135
0.00193257
0.00211896
0.00213918
0.00214774
0.00215479
0.00215997
0.00208701
0.00207974
0.00207183
0.00206815
0.00206043
0.00221268
0.00221118
0.00221378
0.00221985
0.00222532
0.00213834
0.00213432
0.00213182
0.00213544
0.00213606
0.00222858
0.0022062
0.00219811
0.00219896
0.00220145
0.00222429
0.00222213
0.00221863
0.00221561
0.00222198
0.00233339
0.0023366
0.00233433
0.00233475
0.00233688
0.00229173
0.00229046
0.00228997
0.00229493
0.00231643
0.00224012
0.00224159
0.00223589
0.00223365
0.00223322
0.00220397
0.00220476
0.00220753
0.00221588
0.00223124
0.00215544
0.00214388
0.0021435
0.00214663
0.0021494
0.00223601
0.00223597
0.00223531
0.00223173
0.00221857
0.00225269
0.00222844
0.00228395
0.00228667
0.00221734
0.00222656
0.00223198
0.00223382
0.00223364
0.00213434
0.00213205
0.00212989
0.00213285
0.0021542
0.00211601
0.00211386
0.00211679
0.00211727
0.0021168
0.00209224
0.00209129
0.00208947
0.00208701
0.00209446
0.00207233
0.00207575
0.00207684
0.0020767
0.00207636
0.0020082
0.00200807
0.0020083
0.00201265
0.00203651
0.00217236
0.00216484
0.00215135
0.00214165
0.0021363
0.00209508
0.00209825
0.00210472
0.00212031
0.00216975
0.00206786
0.0020736
0.00206503
0.00206227
0.00206075
0.00206132
0.00202097
0.00202238
0.00202555
0.00203654
0.00196649
0.0019758
0.0019809
0.00198402
0.00208956
0.0020873
0.0020845
0.0020763
0.00205378
0.00194865
0.00201443
0.00212035
0.00202467
0.00194813
0.00194967
0.00211142
0.00197798
0.00196629
0.00199276
0.00200198
0.00200321
0.00200227
0.00190966
0.00190925
0.00190778
0.00190737
0.00191967
0.00196231
0.00199185
0.00199411
0.00199152
0.00198856
0.00202022
0.00202723
0.00203367
0.00203019
0.00198321
0.00196796
0.00200505
0.00202339
0.00202864
0.00203213
0.00203685
0.0020072
0.00201012
0.00201147
0.00200518
0.00195139
0.0019576
0.00196596
0.00197162
0.00205682
0.00205161
0.00204516
0.0020354
0.00202234
0.00196986
0.0020691
0.00206191
0.00203373
0.00197067
0.00179663
0.00195334
0.0019169
0.00169862
0.0016627
0.0018657
0.00180119
0.00157974
0.00180658
0.00188144
0.00195318
0.00199803
0.00184529
0.0018616
0.00191026
0.00188916
0.001862
0.00193776
0.00199984
0.00194402
0.0020567
0.0020473
0.00200751
0.00197407
0.00186013
0.00198997
0.0019518
0.00180249
0.0020919
0.00208635
0.00205517
0.00208897
0.00201226
0.00201946
0.00198904
0.00201115
0.00165638
0.00183902
0.00187402
0.00162526
0.00167129
0.00187591
0.00193562
0.00193235
0.0018115
0.00191812
0.00186084
0.00171027
0.00172425
0.00187367
0.00191543
0.00168682
0.0017047
0.00191497
0.00191817
0.00167359
0.00174389
0.00193704
0.00197021
0.00181166
0.00170396
0.00194969
0.00192712
0.00164855
0.00186069
0.00185819
0.001822
0.00179082
0.00171148
0.00170161
0.00170444
0.0017057
0.00191963
0.00191957
0.00191983
0.00192856
0.00198442
0.00223558
0.00217179
0.00214975
0.00213805
0.00213173
0.00191264
0.00190811
0.00190355
0.0019135
0.00199447
0.00219989
0.00216938
0.00215244
0.00214365
0.00213933
0.00208018
0.00207518
0.00207026
0.00207562
0.00213425
0.00204312
0.0020121
0.00188831
0.00185853
0.00180468
0.00179656
0.00179789
0.00179837
0.00199471
0.00199652
0.00199736
0.00199789
0.00202145
0.00222046
0.00217999
0.00216389
0.00215859
0.00215695
0.00205681
0.00205295
0.00204852
0.00205255
0.00210012
0.00225808
0.00224874
0.00223933
0.00223459
0.00223227
0.00213542
0.00213454
0.0021338
0.00213931
0.00218255
0.00215993
0.00213838
0.00205464
0.00201799
0.00195238
0.00191113
0.00190682
0.00190872
0.0019104
0.00210443
0.00210601
0.00211091
0.00212418
0.00214027
0.00221132
0.00219829
0.00218841
0.00218557
0.00218559
0.00218692
0.00218505
0.00218223
0.00218048
0.00219166
0.0022183
0.00221369
0.00221581
0.00221622
0.00221583
0.00224568
0.00236038
0.00232731
0.00222409
0.00206436
0.00196815
0.00197582
0.00198138
0.0019811
0.00197909
0.00213819
0.00213528
0.00213573
0.0021447
0.00215706
0.0021887
0.00219294
0.00219374
0.00219809
0.0022031
0.00207743
0.0020809
0.00208161
0.00207058
0.0020369
0.00188131
0.00185629
0.00185106
0.00185435
0.0018584
0.00169562
0.00170002
0.00170313
0.00169678
0.00168143
0.0014825
0.00146394
0.00145434
0.00145269
0.00145347
0.00146549
0.00146316
0.00146149
0.00146512
0.00147908
0.00122264
0.00121237
0.00121108
0.00121482
0.0012191
0.00119744
0.00119746
0.00119973
0.00120514
0.00120972
0.00105473
0.00103665
0.00103723
0.00103954
0.00104168
0.000985736
0.000979392
0.000974929
0.00097699
0.0010004
0.00128373
0.00131071
0.00131538
0.00130997
0.00130305
0.00141512
0.00140833
0.00140123
0.00140066
0.00141617
0.00164443
0.00164532
0.00164959
0.00165604
0.00166217
0.00189218
0.00189647
0.00189961
0.00189103
0.00184215
0.00195079
0.00198852
0.00199785
0.0019989
0.00199918
0.00189325
0.00189574
0.00189651
0.00189103
0.00188797
0.00197484
0.00196204
0.00196461
0.00196794
0.00197087
0.00207965
0.00208062
0.00208094
0.00207644
0.00206365
0.00202191
0.00200398
0.00200218
0.00200259
0.00200212
0.00219489
0.00219513
0.0021993
0.00220773
0.0022166
0.00200614
0.00198739
0.00198768
0.00199021
0.00199144
0.00203268
0.0020335
0.00203458
0.00203395
0.00202964
0.0020064
0.00198072
0.0019761
0.00197579
0.00197596
0.00211037
0.00211448
0.00212309
0.00213872
0.00215228
0.00215623
0.00212194
0.00210944
0.00210473
0.00210283
0.0019235
0.00192125
0.00191777
0.00191521
0.00192872
0.00193149
0.00191707
0.00191782
0.00191948
0.00192021
0.00212816
0.00213721
0.00215333
0.00217721
0.00218802
0.00223055
0.00223775
0.00221819
0.00220242
0.00219311
0.00219477
0.00219753
0.00220447
0.0022181
0.00222482
0.00229011
0.00227236
0.00227055
0.00226962
0.00227091
0.00206835
0.00206483
0.00205999
0.00205744
0.00206367
0.00193319
0.0019422
0.00197892
0.00199391
0.00200734
0.0020182
0.00205441
0.00205276
0.00204886
0.00202849
0.00213718
0.00213593
0.00213539
0.00213604
0.00211294
0.00210634
0.00210182
0.00210134
0.00211877
0.00212956
0.00204924
0.00209058
0.00199019
0.00190243
0.00214516
0.0020765
0.00201399
0.00194589
0.00180208
0.00192166
0.00190385
0.0018072
0.00185252
0.00184866
0.0019365
0.00195962
0.0019127
0.00195415
0.00197386
0.00191108
0.00181741
0.00193687
0.00192217
0.00179203
0.00182384
0.00190606
0.00186379
0.00181427
0.00190684
0.00164236
0.0014754
0.00133616
0.00126805
0.00125972
0.00127376
0.00127518
0.00125112
0.00120513
0.00112371
0.00101228
0.000886874
0.000770077
0.000654713
0.000731142
0.000722345
0.000722612
0.000725563
0.000727964
0.00090689
0.000918538
0.000931248
0.000936893
0.000921932
0.00096257
0.000965242
0.000963111
0.0009584
0.000953968
0.000934175
0.000944818
0.000955485
0.000959355
0.000958119
0.00118151
0.00113961
0.00113188
0.00113598
0.00114208
0.00132455
0.0013335
0.00134148
0.00133906
0.00132663
0.00158149
0.00156366
0.00155662
0.00155896
0.00156202
0.00177584
0.00177247
0.00177181
0.00178045
0.00180891
0.00166819
0.00167831
0.00167946
0.00167748
0.00167476
0.00161592
0.00162052
0.00162346
0.00162465
0.00164493
0.00194924
0.00192662
0.00191129
0.00190809
0.00190908
0.00198436
0.00198421
0.00198765
0.00200378
0.00205608
0.00180433
0.00180907
0.00180974
0.00180862
0.00180734
0.00179805
0.00179994
0.00180246
0.00180737
0.00182964
0.00205344
0.00204754
0.00203113
0.00202216
0.0020186
0.00200396
0.00200586
0.00201161
0.00202814
0.00207514
0.00181248
0.00180469
0.00180557
0.00180726
0.00180746
0.00186594
0.00186678
0.00186768
0.00186757
0.00186708
0.0019165
0.00189009
0.00188337
0.00188073
0.00187918
0.00209307
0.00210245
0.00211811
0.00213777
0.00213647
0.00183038
0.00183239
0.00183804
0.00184073
0.00184178
0.0018679
0.00186523
0.00185859
0.00184507
0.00183125
0.00183311
0.00184725
0.00186371
0.00187477
0.00188071
0.0019598
0.00195334
0.00194221
0.00192244
0.00189145
0.00179026
0.00183141
0.00185335
0.00186437
0.00186988
0.00210916
0.0021042
0.00209615
0.0020754
0.00200681
0.00217851
0.00220558
0.00220322
0.00219955
0.00219834
0.00208431
0.00208897
0.00209312
0.00208794
0.00201928
0.00202573
0.00203619
0.00204599
0.00209958
0.00208595
0.00207069
0.00205748
0.00206154
0.00207468
0.00207683
0.00207642
0.00230465
0.00230199
0.0022995
0.00228608
0.00219287
0.00198624
0.0020527
0.00205592
0.00190716
0.00187402
0.00205694
0.0020472
0.00187094
0.00192999
0.00209513
0.0021245
0.00213636
0.00214145
0.00214687
0.00201694
0.00200689
0.00199011
0.00197083
0.00223655
0.00225703
0.002256
0.00225533
0.00213412
0.00212949
0.00212195
0.00210744
0.00208777
0.0022635
0.00224879
0.00224682
0.00223931
0.00223498
0.00225246
0.00224877
0.00224451
0.002236
0.00230406
0.00201673
0.00204662
0.00204596
0.00204968
0.00205631
0.00206241
0.00213519
0.00213761
0.00213894
0.00212512
0.00203987
0.00206464
0.00207333
0.00207962
0.00203554
0.00202849
0.00202048
0.00201123
0.00198163
0.00188127
0.00182667
0.00204461
0.0019968
0.00200035
0.00199307
0.00193294
0.00191978
0.00190359
0.00207308
0.00199524
0.00190646
0.00192563
0.00197272
0.00190001
0.00196121
0.00193201
0.00189743
0.00164384
0.001314
0.000984702
0.000751977
0.000660597
0.000705385
0.000813564
0.000895293
0.000893782
0.000810957
0.000687662
0.000605136
0.000525643
0.000482979
0.000416643
0.000448663
0.000434134
0.000425935
0.000417773
0.000411062
0.000484075
0.000484705
0.000488142
0.00049917
0.000536093
0.000592975
0.000582203
0.000575025
0.000564861
0.000554833
0.000701899
0.00070342
0.000708305
0.000723774
0.000755434
0.000971922
0.000927302
0.000907191
0.000899286
0.000895755
0.00102556
0.00103384
0.00104065
0.00104244
0.00105346
0.00138565
0.00134351
0.00132535
0.00132236
0.00132457
0.00152976
0.0015315
0.00153745
0.00155832
0.0016222
0.00139745
0.00139882
0.00139734
0.00139507
0.00139368
0.0013996
0.00140436
0.0014083
0.00141272
0.00143917
0.00179082
0.0017678
0.00174622
0.00173529
0.00173155
0.00180351
0.00180566
0.00181209
0.00183194
0.00189345
0.00155807
0.00156562
0.00156664
0.00156603
0.00156476
0.00163499
0.00163783
0.00164138
0.00164727
0.00166801
0.00192078
0.00191581
0.00189606
0.00188217
0.00187549
0.00189727
0.00190377
0.0019172
0.00194009
0.00195671
0.00203668
0.00200222
0.001982
0.00197119
0.00196612
0.00167718
0.00167592
0.00167024
0.00165839
0.00165266
0.00171953
0.00172476
0.00173433
0.00174035
0.00174262
0.00184631
0.0018438
0.00184046
0.00183688
0.00182709
0.00191883
0.00194126
0.00194552
0.00194643
0.00194681
0.00205254
0.00205217
0.00205108
0.00204558
0.0020169
0.00198896
0.00201271
0.0020178
0.00201923
0.00201918
0.00204041
0.00203254
0.00201907
0.00199595
0.00195518
0.00201653
0.00201932
0.00202857
0.00203633
0.00204103
0.00218677
0.00219236
0.00220065
0.00220312
0.00215578
0.0020609
0.00214241
0.00214988
0.00214701
0.00214436
0.00206815
0.00206495
0.00206004
0.00205217
0.00200825
0.00212365
0.00212319
0.00211896
0.00211663
0.00211836
0.00208691
0.00194004
0.00199856
0.00195171
0.00201461
0.0021834
0.0018034
0.00197055
0.00222325
0.00183521
0.00214899
0.00288264
0.00200376
0.00216655
0.0022163
0.0025272
0.00199604
0.00165452
0.00118401
0.000791175
0.000524586
0.000458039
0.000536459
0.000662776
0.000739173
0.00070932
0.000605041
0.000491573
0.000404844
0.000373077
0.000335578
0.000431228
0.000435058
0.000431249
0.000427188
0.000424601
0.000342458
0.000349118
0.000354058
0.000355825
0.000363368
0.000592014
0.000579701
0.000561795
0.000548373
0.000540349
0.00077279
0.000781966
0.000794435
0.000808112
0.000831321
0.000787561
0.000766305
0.00076263
0.000757556
0.000751533
0.00112911
0.00113863
0.00115659
0.00118594
0.00122154
0.00140269
0.00135924
0.00134138
0.00132963
0.00132203
0.00127996
0.00128402
0.0012882
0.00129354
0.00131902
0.00169181
0.00166448
0.00163792
0.00162226
0.00161476
0.00169859
0.00170388
0.00171318
0.00172855
0.00175679
0.0013895
0.00137476
0.0013777
0.00138216
0.00138474
0.00151052
0.00151056
0.0015106
0.00151147
0.00152355
0.00160174
0.00160395
0.00160237
0.00159929
0.00159675
0.00168772
0.0016957
0.00170448
0.00170437
0.00167208
0.00172311
0.00175417
0.00175057
0.00173923
0.00172835
0.00193897
0.00194662
0.00195819
0.00196245
0.00191553
0.00191842
0.00194217
0.00194477
0.00194558
0.00194562
0.00195521
0.00195395
0.00194988
0.00194047
0.00190071
0.00202836
0.00206875
0.00207982
0.00208536
0.00208882
0.00216078
0.00216216
0.00216347
0.00215961
0.00212143
0.00216728
0.00218238
0.00218658
0.00219139
0.0021953
0.00228979
0.00229634
0.00230591
0.00230394
0.00222654
0.0020356
0.00199794
0.00200676
0.00202625
0.0020403
0.00231372
0.00231019
0.00230524
0.00229809
0.00226331
0.00221412
0.00219478
0.0021936
0.00219734
0.00219999
0.00219894
0.00220534
0.00221319
0.00220855
0.00214322
0.0019926
0.00209789
0.00210543
0.00209759
0.00209022
0.00221339
0.00222039
0.00223254
0.00222935
0.0021075
0.00187743
0.00190011
0.00191115
0.0019184
0.00192255
0.00207143
0.00207581
0.00207886
0.00207054
0.00203314
0.00203033
0.00192936
0.00191211
0.00203486
0.00204892
0.0019065
0.00196068
0.0019696
0.00197231
0.00197285
0.00205075
0.00205301
0.00205556
0.00205538
0.00200622
0.00195403
0.00197301
0.00195039
0.00192258
0.00189786
0.00193089
0.00195752
0.00195955
0.00188267
0.00194056
0.00199116
0.00197384
0.00197574
0.0021975
0.00207038
0.00201863
0.00206946
0.00201785
0.00199575
0.00195114
0.00186371
0.00188886
0.00196582
0.00200946
0.0020045
0.00207518
0.00204604
0.00202156
0.00202747
0.00200623
0.0019961
0.00205412
0.00212201
0.00206306
0.0020254
0.00198072
0.00194146
0.00193003
0.00198974
0.00201627
0.0020109
0.001975
0.00199285
0.0019937
0.00194889
0.00193687
0.00197674
0.0019488
0.00191781
0.00187269
0.0019361
0.00193014
0.00183753
0.00185487
0.00195986
0.00189984
0.00183645
0.00189458
0.00192293
0.00196321
0.00199066
0.00197968
0.00195211
0.00193021
0.0019602
0.00199265
0.00192928
0.00195116
0.00199415
0.00195787
0.00195697
0.0019454
0.00196762
0.00209982
0.00197157
0.00197919
0.00208253
0.0019071
0.00188697
0.00171751
0.00149316
0.00119928
0.000906722
0.000790324
0.000830725
0.0011457
0.0012731
0.00156695
0.00171609
0.00174166
0.00175439
0.00176377
0.00205503
0.00207049
0.00208756
0.00209481
0.00205801
0.00148872
0.00154891
0.00155848
0.00155855
0.00155476
0.00218266
0.00220348
0.00222976
0.00224202
0.00221422
0.00160358
0.00156611
0.00156266
0.00156538
0.00156562
0.00222529
0.00224661
0.00227788
0.00230894
0.00228811
0.00227681
0.00235309
0.00235777
0.00234603
0.00233447
0.00169855
0.00170068
0.0016985
0.00169089
0.00166452
0.00158185
0.00162819
0.00162688
0.00162385
0.0016212
0.00201979
0.00202959
0.00204274
0.00206144
0.00213293
0.00164383
0.00159585
0.00159224
0.00159434
0.00159317
0.0017043
0.00170618
0.0017093
0.00171855
0.00175683
0.0021542
0.00206675
0.00203834
0.00202511
0.002017
0.00193794
0.00194716
0.00196382
0.00199307
0.00202433
0.00208852
0.00200448
0.0019819
0.00197394
0.00197013
0.00193703
0.00194194
0.00195367
0.00197817
0.00202265
0.00197162
0.00192063
0.00191383
0.00191637
0.00191941
0.00168875
0.00164622
0.00164152
0.00164193
0.00164087
0.00171212
0.00171231
0.00171107
0.00171294
0.00174032
0.00202408
0.0019918
0.00197048
0.00196034
0.00195682
0.00192214
0.00192012
0.00192125
0.00193939
0.0020241
0.00200698
0.00200275
0.00200553
0.00200631
0.00200579
0.00205588
0.00205583
0.0020553
0.00205348
0.00205429
0.00211904
0.00203289
0.00188819
0.00168198
0.00159118
0.00158131
0.00158322
0.00158199
0.00157896
0.00182
0.0018219
0.0018274
0.00184651
0.00188245
0.00189222
0.00186821
0.00185604
0.00185375
0.00185433
0.00165512
0.00165971
0.00166408
0.00166144
0.00165388
0.0015059
0.00148365
0.00146907
0.0014633
0.00146108
0.00123572
0.00123674
0.00124222
0.00125926
0.00128706
0.00124388
0.00122294
0.00121377
0.00121195
0.00121225
0.00105371
0.00106169
0.00106955
0.00107141
0.00106853
0.00112439
0.00115004
0.00114962
0.00113867
0.0011273
0.000815898
0.000814102
0.000814166
0.000821236
0.00084411
0.000883731
0.000865434
0.00086495
0.000868565
0.000871403
0.000819948
0.000821182
0.000823774
0.00083077
0.000852635
0.000858581
0.000868769
0.000862258
0.000850494
0.000840623
0.000592087
0.000590474
0.000589237
0.000592107
0.000608925
0.000612758
0.000577974
0.00057242
0.000573031
0.000574178
0.000566747
0.000569511
0.00057322
0.000579153
0.000598736
0.000617846
0.000614339
0.000606308
0.000595871
0.000586983
0.000613156
0.000612666
0.000613865
0.000622454
0.00065563
0.000797029
0.000766698
0.000757758
0.000757099
0.000757873
0.000669196
0.000584967
0.000611996
0.000590524
0.000582248
0.000576635
0.000572445
0.000493788
0.000486022
0.000526606
0.000529534
0.000525643
0.000518764
0.000512706
0.000493742
0.000491713
0.000491175
0.000496901
0.000527711
0.000471368
0.000462421
0.000458653
0.000454138
0.000450059
0.00039798
0.000398137
0.000399017
0.000402565
0.000416992
0.000353973
0.000340494
0.00033699
0.000338296
0.000339959
0.000380911
0.000383178
0.000387508
0.000398365
0.000425188
0.000453873
0.000442537
0.000437448
0.000429647
0.000422028
0.000571869
0.000574788
0.00058256
0.000600395
0.000631828
0.000847722
0.000798054
0.000777989
0.00076792
0.00076175