/*--------------------------------*- C++ -*----------------------------------*\
  =========                 |
  \\      /  F ield         | OpenFOAM: The Open Source CFD Toolbox
   \\    /   O peration     | Website:  https://openfoam.org
    \\  /    A nd           | Version:  7
     \\/     M anipulation  |
\*---------------------------------------------------------------------------*/
FoamFile
{
    version     2.0;
    format      ascii;
    class       volVectorField;
    location    "5.5";
    object      wallShearStress;
}
// * * * * * * * * * * * * * * * * * * * * * * * * * * * * * * * * * * * * * //

dimensions      [0 2 -2 0 0 0 0];

internalField   uniform (0 0 0);

boundaryField
{
    outlet1
    {
        type            calculated;
        value           uniform (0 0 0);
    }
    Wall
    {
        type            calculated;
        value           nonuniform List<vector> 
40276
(
(0.000404594 5.00312e-05 0.000171966)
(-0.000186846 -8.40317e-06 0.000415656)
(-0.000190541 -7.66949e-06 0.000407552)
(0.000112208 -4.53645e-05 0.00015617)
(9.21729e-05 -1.16526e-05 0.000148899)
(8.15737e-05 3.75909e-05 0.00015361)
(9.29673e-05 4.82278e-05 0.000164228)
(0.000137686 3.70338e-05 0.00019108)
(0.000108537 2.40221e-05 0.000176106)
(0.000102303 1.75965e-05 0.000172877)
(0.000401344 4.03917e-05 0.000426922)
(0.000485218 1.7349e-05 0.000463992)
(0.000584243 4.18491e-05 0.000938793)
(0.000562629 4.20967e-05 0.000870244)
(0.000463864 -1.28424e-05 0.000323374)
(0.000415669 4.4387e-06 0.000353655)
(0.000383867 2.4317e-05 7.22794e-05)
(0.000345709 2.55109e-05 3.43969e-05)
(-9.11157e-05 -1.95781e-05 -0.000138665)
(-9.77136e-05 -4.85998e-05 -0.000153988)
(-0.000150031 3.79864e-05 0.000211811)
(-0.000180943 4.29549e-05 0.000198846)
(-0.00011852 3.19109e-05 6.8074e-05)
(-0.000137332 2.9385e-05 6.4419e-05)
(-9.95577e-05 2.36089e-05 4.35266e-05)
(-0.000111857 2.46659e-05 3.77575e-05)
(-0.000119633 4.01741e-05 2.05e-05)
(-0.000117381 4.0605e-05 1.49001e-05)
(-0.000177898 5.73912e-05 3.24009e-05)
(-0.000159069 4.90773e-05 2.36576e-05)
(-0.000122667 4.01011e-05 7.41506e-05)
(-0.000137633 4.81405e-05 8.18699e-05)
(-5.25704e-05 -3.16839e-06 0.000159672)
(-4.68131e-05 -4.85693e-06 0.000148402)
(-6.01322e-05 1.01848e-05 7.78208e-06)
(-5.91697e-05 1.15432e-05 7.37473e-06)
(0.000572849 6.33065e-05 0.00019627)
(0.000621668 4.29778e-05 0.000212391)
(0.00107622 0.000258749 0.000371864)
(0.00122378 0.000335704 0.000394795)
(0.000993343 5.82077e-05 0.000134238)
(0.000946738 2.92888e-05 0.000160852)
(-4.69612e-05 -1.44024e-05 -0.000392417)
(-2.63929e-05 -1.11254e-05 -0.000358639)
(-5.04691e-05 -1.92419e-06 -0.000359452)
(-4.33786e-05 -6.24367e-06 -0.000298528)
(-7.27007e-05 -1.59982e-07 -0.000306611)
(-5.60449e-05 -3.19918e-06 -0.000250108)
(-6.60525e-05 -7.4034e-07 -0.000218107)
(-6.49954e-05 1.2411e-06 -0.000184014)
(-5.39723e-05 -1.2621e-06 -0.000153465)
(-6.65043e-05 1.58782e-06 -0.000160852)
(-5.83602e-05 -2.25327e-07 -0.000130732)
(-6.15129e-05 2.53267e-06 -0.00013224)
(0.000439812 7.92657e-05 0.000253125)
(0.000457991 9.31583e-05 0.000221815)
(-2.13032e-05 1.48137e-05 0.000137961)
(6.40458e-05 2.19855e-05 0.000190869)
(-1.4494e-05 1.01721e-05 0.000140993)
(-0.000468599 -0.000124976 -0.000448385)
(-0.00049575 -0.000103767 -0.000456701)
(1.90391e-05 3.45127e-05 0.000291222)
(-1.27812e-05 -1.1802e-05 0.000225108)
(8.79516e-06 -8.20379e-07 -3.88255e-05)
(1.14261e-05 2.36459e-06 -3.49284e-05)
(5.80436e-06 4.8051e-08 -3.44577e-05)
(1.87933e-06 -2.1415e-06 -3.35059e-05)
(9.48672e-06 9.35198e-08 -3.61034e-05)
(-0.000117086 -1.74646e-05 -0.000106637)
(-0.000129055 -6.7481e-06 -0.000115774)
(-5.68362e-05 4.72835e-06 -0.000110365)
(-5.73936e-05 -8.64938e-09 -0.000112384)
(-2.0967e-05 1.584e-06 -2.17518e-05)
(-2.09649e-05 1.59671e-06 -2.12458e-05)
(-1.88572e-05 1.64713e-06 -2.0491e-05)
(-1.79827e-05 2.02544e-06 -1.96769e-05)
(-2.04531e-05 9.22563e-07 -2.04675e-05)
(2.19274e-05 -1.4856e-06 -6.99417e-06)
(1.89436e-05 -1.58224e-06 -1.06716e-05)
(-3.72611e-09 4.35603e-06 1.50574e-07)
(8.2596e-07 3.58661e-08 1.19865e-07)
(8.21983e-06 -6.98068e-07 -4.67867e-07)
(1.94053e-05 2.65604e-07 1.33342e-05)
(1.87534e-05 2.50434e-07 1.36397e-05)
(2.70279e-05 -2.791e-06 1.8984e-05)
(5.44863e-06 4.54902e-07 -2.95425e-05)
(1.77624e-06 -1.4469e-06 -2.85082e-05)
(4.81642e-06 7.82054e-07 -2.49238e-05)
(2.44897e-05 -2.85534e-06 1.76919e-05)
(2.43686e-05 -2.86736e-06 1.76636e-05)
(2.10817e-05 -2.24534e-06 1.5799e-05)
(-4.2871e-05 -4.72824e-06 -3.87969e-05)
(1.31429e-06 -8.76305e-07 -2.41209e-05)
(4.17241e-06 9.90455e-07 -2.10473e-05)
(1.03548e-06 -4.28428e-07 -2.05032e-05)
(6.69308e-07 -2.30774e-07 -1.73002e-05)
(2.76421e-07 5.0297e-08 -1.4616e-05)
(-3.3524e-07 1.53902e-07 -1.2765e-05)
(-3.31065e-06 -2.12793e-07 -1.00345e-05)
(-3.97352e-06 -8.31565e-08 -9.43234e-06)
(-4.80011e-06 -8.58389e-09 -9.294e-06)
(-8.11264e-06 -2.13923e-07 -1.08642e-05)
(-8.45938e-06 -1.67798e-07 -1.15176e-05)
(-4.81849e-05 -9.26508e-07 -4.22811e-05)
(-8.82945e-06 -2.94058e-08 -1.25426e-05)
(-1.79909e-05 -4.68545e-06 -2.19293e-05)
(-1.49803e-05 -4.63997e-06 -1.75122e-05)
(-8.832e-06 -1.1245e-07 -1.33713e-05)
(-8.84795e-06 2.21983e-08 -1.4561e-05)
(-8.50476e-06 -4.85723e-07 -1.50725e-05)
(-8.76063e-06 2.85749e-08 -1.61166e-05)
(-8.27114e-06 -5.4965e-07 -1.69804e-05)
(-7.84703e-06 -2.42589e-07 -1.74707e-05)
(-7.6041e-06 -9.53532e-07 -1.89991e-05)
(-7.38922e-06 -1.4915e-06 -1.78879e-05)
(4.02554e-06 -8.96304e-07 -2.61747e-05)
(3.82296e-06 -2.88419e-06 -2.76526e-05)
(2.29254e-06 -2.90492e-06 -2.61484e-05)
(-0.000275676 -6.28855e-05 0.000486363)
(-0.000278631 -6.13606e-05 0.000441047)
(-1.39493e-05 -1.23695e-06 5.40624e-06)
(-1.21362e-05 -1.43715e-06 6.94165e-06)
(-4.00211e-05 -1.91746e-06 1.73231e-05)
(-3.42827e-05 -3.1799e-06 1.59259e-05)
(-4.1595e-06 -9.933e-06 -5.16947e-06)
(-1.98048e-06 -9.77215e-06 -2.57266e-06)
(-0.000127475 2.54146e-05 0.00018404)
(-0.000110682 3.41587e-05 0.000156518)
(-0.000160159 -1.74221e-05 0.000274232)
(-0.000139945 -2.3463e-05 0.000236074)
(-0.000102949 -5.89841e-06 0.000172855)
(-9.0076e-05 -8.95783e-06 0.000148777)
(-0.000156656 9.41968e-05 0.000467846)
(-0.000217296 0.000169341 0.000654305)
(7.57871e-06 -1.19318e-05 0.000188601)
(-1.05666e-06 -4.6872e-06 0.000159335)
(-0.000102118 2.75597e-05 0.000193028)
(-5.57285e-05 1.30549e-06 0.000167467)
(-0.000180679 -5.60048e-05 0.000491612)
(-0.000180563 -3.8867e-05 0.00049223)
(-0.000180393 -4.42147e-05 0.000526095)
(-0.000196385 -2.03676e-05 0.000527735)
(-0.000559973 1.82378e-06 -0.000151441)
(-0.000642526 2.52383e-06 -0.000183626)
(-2.27559e-05 -7.96783e-05 9.95812e-06)
(-2.65501e-05 -7.89422e-05 1.19242e-05)
(-2.14549e-05 -4.38679e-05 6.54871e-05)
(-2.52177e-05 -5.36561e-05 8.18265e-05)
(-2.90528e-05 -5.25513e-05 6.60856e-05)
(-2.32229e-05 -4.04558e-05 5.37475e-05)
(-1.5469e-05 -8.61465e-05 8.48784e-06)
(-1.98962e-05 -9.8354e-05 6.53326e-06)
(-2.34967e-05 -8.34774e-05 8.81944e-06)
(-2.18842e-05 -8.64851e-05 9.21282e-06)
(-2.31359e-05 -0.000128636 -1.56103e-05)
(-1.99742e-05 -0.000111411 -1.41257e-05)
(-7.64305e-06 -5.66218e-05 -3.31689e-06)
(-9.87893e-06 -5.0537e-05 -4.75771e-06)
(-6.09795e-05 -3.1218e-05 9.45461e-05)
(-5.57678e-05 -3.30437e-05 8.93463e-05)
(8.86151e-05 3.94855e-06 -0.000234389)
(9.63402e-05 -4.90666e-06 -0.000219198)
(-0.000137157 -5.93565e-05 -1.2501e-05)
(-0.000135985 -6.63347e-05 -1.4694e-05)
(-0.000299219 -4.80827e-05 0.000146017)
(-0.000321147 -5.22399e-05 0.000137258)
(-0.000291513 -7.43421e-05 -2.60461e-05)
(-0.000284878 -6.15845e-05 -3.52427e-05)
(-0.000173553 0.000193101 0.000236315)
(-0.000167352 0.000241684 0.000219379)
(-0.000249082 -4.48402e-05 1.31757e-05)
(-0.000131138 -4.67168e-05 -1.84837e-05)
(-0.000206894 -7.76161e-05 7.47351e-05)
(-0.000178249 -7.60431e-05 6.31957e-05)
(-0.000227731 -5.19565e-05 5.8853e-05)
(-6.74056e-05 -4.22177e-05 -7.10386e-06)
(-3.91097e-05 -2.09127e-05 6.05117e-05)
(-3.22294e-05 -1.93907e-05 5.58655e-05)
(0.000581897 -0.000234064 0.000425295)
(0.000527463 -0.000201796 0.000352314)
(0.00051864 -0.000295457 0.000229895)
(0.000479997 -0.000214718 0.000258998)
(0.000492296 -0.00025364 0.000251674)
(0.000264357 -0.000185638 0.000185206)
(0.000361731 -0.000240983 0.00021683)
(0.000284197 -0.000183602 0.000197256)
(0.000458127 -0.000215062 0.000357418)
(0.000486283 -0.000264244 0.000342395)
(0.000474851 -0.000254288 0.000293311)
(0.000376885 -0.000262105 0.000187706)
(0.00047973 -0.000307653 0.000185996)
(0.000400164 -0.000233414 0.000238818)
(0.000163002 -0.000102947 0.000160191)
(0.000256869 -0.000188595 0.000184672)
(0.000199582 -0.000120642 0.000181452)
(0.000151694 -8.98162e-05 0.00016494)
(7.85738e-05 1.83903e-05 0.000148598)
(0.000267401 0.000104756 5.5082e-05)
(0.000325999 0.000104951 0.000102425)
(0.000279882 7.13455e-05 0.000113359)
(0.00029605 5.73428e-05 5.53263e-05)
(0.000354226 6.11055e-05 0.000101111)
(0.000318662 9.44319e-05 9.80733e-05)
(0.000287593 7.18547e-05 7.74668e-05)
(9.66616e-05 4.03739e-05 0.000111612)
(0.000108269 5.16599e-05 0.00010613)
(9.78285e-05 2.65686e-06 0.000158214)
(0.000101056 4.67505e-06 0.000159965)
(0.00011768 3.08985e-06 0.000179507)
(9.62432e-05 -2.87032e-06 0.000157561)
(0.000103302 1.75545e-05 0.000159217)
(8.16608e-05 2.29921e-05 0.00012595)
(7.33236e-05 2.28933e-05 9.69668e-05)
(7.02439e-05 2.21448e-06 0.000114514)
(6.99072e-05 -3.85701e-06 0.000126343)
(4.59056e-05 -1.77759e-05 0.000100861)
(6.31598e-05 -2.02579e-05 0.000115694)
(5.21469e-05 1.70105e-06 8.92131e-05)
(3.90549e-05 -1.80422e-06 7.5211e-05)
(4.43345e-05 -5.02887e-06 8.42814e-05)
(0.000142645 7.98285e-05 6.7105e-05)
(0.000169768 8.93533e-05 8.04512e-05)
(0.000173832 8.16262e-05 9.01221e-05)
(0.000167071 7.87352e-05 6.1208e-05)
(0.000105134 5.27977e-05 9.48455e-05)
(0.000118479 6.18578e-05 6.92432e-05)
(0.000125494 6.95474e-05 4.53132e-05)
(0.000127906 6.03852e-05 5.28812e-05)
(0.000111257 5.55142e-05 6.03456e-05)
(0.000249558 0.000101412 4.88827e-05)
(0.000202222 9.37758e-05 4.62927e-05)
(0.000267368 9.49507e-05 6.12811e-05)
(0.000245506 7.04109e-05 4.73772e-05)
(0.000214344 8.86765e-05 3.41899e-05)
(0.000198826 6.83937e-05 3.9735e-05)
(7.299e-05 3.21567e-05 7.21782e-05)
(7.74554e-05 3.33167e-05 7.32623e-05)
(6.03036e-05 1.68443e-05 8.35764e-05)
(9.01019e-05 4.84977e-05 6.00813e-05)
(4.7642e-05 1.17426e-05 6.58608e-05)
(5.79189e-05 2.86157e-05 4.72783e-05)
(0.000103439 5.18654e-05 6.53383e-05)
(0.000137689 6.90371e-05 3.63568e-05)
(6.19575e-05 3.77738e-05 1.84727e-05)
(7.53745e-05 3.87968e-05 3.36454e-05)
(6.35466e-05 3.75877e-05 2.79886e-05)
(0.000122269 7.04617e-05 1.48946e-05)
(0.000154707 7.6991e-05 -3.19826e-06)
(0.00014242 5.50268e-05 3.10737e-05)
(0.000138153 6.65607e-05 1.98772e-05)
(0.000310284 2.71914e-05 0.000542153)
(0.000348257 5.60046e-05 0.000631401)
(0.000315667 -1.88989e-06 0.000562799)
(0.000326544 2.80249e-05 0.000577527)
(0.000364363 0.000101988 0.000408662)
(0.000396058 0.000108339 0.000487829)
(0.000283013 9.75707e-05 0.000401652)
(0.000310393 9.20875e-05 0.00046074)
(0.000295878 0.000104788 0.000447669)
(0.0002782 8.69356e-05 0.000461898)
(0.000395577 0.000156896 0.00051686)
(0.00033203 0.000133244 0.000389471)
(0.000380198 0.000140043 0.000486762)
(0.000241065 9.05702e-05 0.000396378)
(0.000324326 0.0001173 0.000495078)
(0.000414645 0.000132393 0.000395891)
(0.000367941 0.000135605 0.000462175)
(0.000362322 0.000133203 0.00046497)
(0.000413034 0.000134736 0.000570579)
(0.000430043 0.000169975 0.000506929)
(0.000472844 0.000183979 0.000503907)
(0.00046143 0.000189855 0.000472625)
(0.000452055 0.000157811 0.00056608)
(0.000437221 0.000162178 0.000566446)
(0.000413277 7.63457e-05 0.000484124)
(0.000528632 8.22326e-05 0.000517025)
(0.000404629 9.60165e-05 0.000497502)
(0.000310238 9.66851e-05 0.000385994)
(0.000392766 9.35541e-05 0.000482901)
(0.000429511 7.30993e-05 0.000421747)
(0.000321574 5.79756e-05 0.0003163)
(0.000345401 0.000104007 0.000376721)
(0.0003728 8.62589e-05 0.000367466)
(0.000375475 9.63138e-05 0.000357202)
(0.000510752 -4.16121e-05 0.000450763)
(0.000527305 -6.03526e-05 0.000448474)
(0.000544157 -0.000147248 0.000429923)
(0.000421199 -6.52545e-05 0.000383475)
(0.000507504 -0.00012603 0.000332847)
(0.00039562 -9.6285e-06 0.000351874)
(0.00055227 -0.000137523 0.000358996)
(0.00037328 -2.95178e-05 0.000297021)
(0.000484147 -0.000105348 0.000283456)
(0.00057415 -0.000223681 0.000269695)
(0.000350348 5.95411e-05 0.000364628)
(0.000350216 8.78116e-05 0.000380677)
(0.000390512 2.40583e-05 0.000313342)
(0.000386273 6.46201e-05 0.000329654)
(0.000404839 0.00014579 0.000389539)
(0.000434933 0.000149672 0.000519953)
(0.000434871 0.000148595 0.000468991)
(0.000451431 0.000130165 0.000382107)
(0.000506213 0.000165262 0.000424657)
(0.000500562 0.000190676 0.000532646)
(0.000447272 0.000156767 0.000529323)
(0.000474649 0.00015548 0.000560192)
(0.000475511 0.000173887 0.000402774)
(0.00045627 0.000160712 0.000533052)
(0.000456668 0.000165393 0.00053344)
(0.000573036 0.000207538 0.000662471)
(0.000549021 0.000196496 0.000519264)
(0.000409061 0.000119035 0.000375078)
(0.000578656 0.000182524 0.000426103)
(0.000460752 0.0001059 0.000393309)
(0.000591309 0.000149346 0.000398828)
(0.000517963 0.000179941 0.00044188)
(0.00052441 0.000165215 0.000515726)
(0.000699902 0.000264073 0.000527071)
(0.000555747 0.000189088 0.000431487)
(0.000532622 0.000161997 0.000455905)
(0.000742497 0.000262047 0.00048247)
(0.000568333 0.000245613 0.000485789)
(0.00060566 0.000209548 0.000596483)
(0.000561566 0.000181933 0.000630667)
(0.000664283 0.000227103 0.000620542)
(0.00066412 0.000233533 0.000599568)
(0.000349375 0.000137862 0.000460071)
(0.000341997 0.000129275 0.000456686)
(0.000234464 6.86221e-05 0.000429027)
(0.000339569 0.000127417 0.000493868)
(0.00042597 0.000118856 0.000638244)
(0.000389976 0.000109114 0.000588826)
(0.000375997 0.00014282 0.000492652)
(0.000396185 0.000151265 0.000513612)
(0.000379485 0.00014499 0.000561204)
(0.000359705 5.99119e-05 0.000644996)
(0.000310523 3.99178e-05 0.000578429)
(0.000365672 0.000105512 0.000608499)
(0.000347184 9.31117e-05 0.000598537)
(0.000310747 3.92302e-05 0.000505848)
(0.000421813 0.0001669 0.000538139)
(0.000446476 0.000136222 0.000625817)
(0.00039783 0.000119515 0.000607633)
(0.000383118 -7.57302e-06 0.000634171)
(0.000473988 0.00014073 0.000713834)
(0.000355895 5.55736e-05 0.000609876)
(0.000461082 0.000182525 0.000528465)
(0.000501246 0.000192382 0.000568867)
(0.000447186 0.000138457 0.000630833)
(0.000435369 0.000171076 0.000561451)
(0.000503589 0.000200253 0.000567151)
(0.0005018 0.00012391 0.000698073)
(0.00051099 0.000141135 0.000781706)
(0.00040681 4.31967e-05 0.0006766)
(0.00037312 4.30677e-05 0.000612443)
(0.000404905 7.33817e-05 0.000648539)
(0.000460201 0.00012726 0.000687232)
(0.000392808 7.04498e-05 0.000607257)
(0.000511384 0.000214979 0.000603857)
(0.000511102 0.000102683 0.000750349)
(0.000590903 0.000188567 0.000851408)
(0.000278858 1.01147e-05 0.000487227)
(0.00029062 5.29606e-05 0.000497944)
(0.00035352 0.00012993 0.000553209)
(0.000372662 8.21975e-05 0.000631021)
(0.000349934 2.49171e-05 0.000580404)
(0.000434616 9.17017e-05 0.000690584)
(0.000332647 -1.3244e-05 0.000562319)
(0.000335522 3.7927e-05 0.000555832)
(0.000427298 0.000141885 0.000671719)
(0.000355435 4.49807e-05 0.000604521)
(0.000309603 3.60788e-05 0.000519491)
(0.000377736 -4.72414e-06 0.00062307)
(0.000326809 4.1861e-05 0.000548786)
(0.000350327 4.54608e-05 0.000577272)
(0.000425444 4.16512e-05 0.000695058)
(0.000332178 8.73653e-05 0.000571195)
(0.000331371 5.88176e-05 0.000558366)
(0.000421716 -5.79882e-05 0.000646176)
(0.00047675 0.000126762 0.000750967)
(0.000409153 -2.34242e-05 0.000689731)
(0.000521655 6.48168e-05 0.000852848)
(0.000398401 1.06063e-05 0.00066596)
(0.0004189 3.17248e-05 0.000684698)
(0.000527934 0.000158797 0.000766785)
(0.000423028 5.29559e-05 0.000675965)
(0.000482913 3.45972e-05 0.000768988)
(0.000519767 4.47794e-05 0.000851586)
(0.000528929 1.94308e-05 0.000848933)
(0.000418448 3.63361e-05 0.0006702)
(0.000472428 4.19107e-05 0.000749723)
(0.000422493 1.75374e-05 0.000671027)
(0.000481209 5.06367e-05 0.000762008)
(0.000545982 0.000172984 0.000690033)
(0.000535202 0.000190593 0.000619034)
(-2.1008e-05 -4.91156e-05 0.000160238)
(0.00056393 0.000150481 0.000777703)
(0.000490039 0.00013552 0.000668768)
(0.000615208 0.000226254 0.000669475)
(0.00057251 0.000219091 0.00060314)
(0.000608908 0.000212801 0.000678843)
(-2.52665e-05 -4.87901e-05 0.000159679)
(0.000543586 0.000171138 0.000715701)
(0.000561619 0.000205034 0.000659249)
(0.000608803 0.000225817 0.000689333)
(0.000555187 0.000165929 0.000767768)
(0.000623459 0.000175044 0.000913254)
(-2.29065e-05 -4.85716e-05 0.000156955)
(0.000466604 6.77669e-05 0.000730748)
(0.000432492 6.05956e-05 0.000710011)
(0.000465437 9.22169e-05 0.000707334)
(0.000525818 5.80618e-05 0.00079523)
(0.000463297 0.000104165 0.000704334)
(-2.53766e-05 -3.80821e-05 0.000159968)
(0.000574751 0.000232917 0.000665763)
(0.000594623 0.000119821 0.0008389)
(0.00068251 0.000215754 0.000931509)
(0.000654818 0.000217311 0.000776564)
(0.00071614 0.000252282 0.000652066)
(0.000774824 0.000286728 0.000656322)
(0.000644416 0.000188218 0.000835358)
(0.000603085 0.000173089 0.000749514)
(0.00063342 0.000257332 0.000627218)
(0.000667169 0.000237045 0.000680974)
(0.000643615 0.000203996 0.000762021)
(0.000711527 0.000244069 0.000811273)
(0.000738916 0.000283109 0.000780844)
(0.00065967 0.000205043 0.0008398)
(0.000685019 0.000169903 0.000942798)
(0.000560917 0.000134776 0.000786554)
(0.0006287 0.000139844 0.000977867)
(0.000509983 0.00010173 0.000755985)
(0.000588965 8.16588e-05 0.000890612)
(0.000733174 0.000242282 0.000929106)
(0.000607974 0.000194751 0.00077151)
(0.000648908 0.00017029 0.000924947)
(0.000542159 9.18291e-05 0.000873223)
(0.000559807 0.000148815 0.000794428)
(0.00073428 0.000134463 0.00102938)
(0.000640609 0.000145733 0.000994439)
(0.00059103 6.61861e-05 0.000948645)
(0.000591289 2.35775e-05 0.000942258)
(0.000475533 2.89868e-05 0.000788836)
(0.000467278 6.28905e-05 0.000735314)
(0.000602773 0.000120766 0.000871919)
(0.000617354 0.000129518 0.00096373)
(0.000577976 2.92534e-05 0.000905011)
(0.000595577 4.28965e-05 0.000937436)
(0.000603748 -3.31723e-05 0.000939089)
(0.000583362 4.50065e-05 0.000894019)
(0.00067197 0.000133722 0.000974889)
(-3.1351e-05 -4.31812e-05 0.000168355)
(0.000504416 1.24785e-06 0.000824819)
(0.000458537 5.73351e-05 0.000721972)
(0.000653746 0.000156739 0.000962156)
(0.00068473 0.000195975 0.00102374)
(0.000569141 1.29758e-06 0.00094925)
(0.000712322 7.01498e-05 0.00112302)
(0.000530209 4.8507e-05 0.00083338)
(0.000652927 3.6572e-05 0.00100164)
(0.000522915 6.29264e-05 0.000828275)
(0.000502473 -7.76155e-06 0.000768123)
(0.000643789 -8.3053e-05 0.000955595)
(0.000697388 4.14954e-05 0.0011046)
(0.000697264 1.2992e-05 0.00109456)
(0.000359133 -5.04538e-05 0.00052145)
(0.000281699 1.92528e-05 0.00043626)
(0.000315062 9.76913e-06 0.000452086)
(0.000303397 8.97817e-06 0.000463362)
(0.000218184 3.90064e-05 0.000389487)
(0.00028944 2.80041e-05 0.000448982)
(0.000369528 3.91591e-06 0.000481191)
(0.000289177 4.61496e-05 0.000453494)
(0.000342538 4.37215e-05 0.00060821)
(0.0003436 6.00481e-05 0.000582077)
(-2.31188e-05 -4.18209e-05 0.00015353)
(-2.67873e-05 -4.38534e-05 0.000160429)
(-2.4787e-05 -4.05195e-05 0.000148605)
(-2.62698e-05 -3.68407e-05 0.000149468)
(0.000383489 3.37631e-05 0.000601124)
(0.00034682 7.50292e-05 0.000551271)
(0.000411981 1.57974e-05 0.000554356)
(0.000368366 3.33055e-05 0.000497939)
(0.000389247 -9.2818e-06 0.000506401)
(0.000385034 8.18778e-06 0.000478913)
(-2.97121e-05 -3.62312e-05 0.000154847)
(0.00040525 3.40197e-06 0.000523828)
(-3.50356e-05 -2.89026e-05 0.000164923)
(-3.01274e-05 -3.46119e-05 0.000155935)
(0.000423316 1.47329e-05 0.000222108)
(0.000419081 1.82895e-05 0.000264795)
(0.000401703 -9.78142e-06 0.000254425)
(-3.34676e-05 -3.44553e-05 0.000153963)
(-2.65207e-05 -3.83369e-05 0.000164603)
(-2.59163e-05 -4.18766e-05 0.000161145)
(-3.23204e-05 -3.37776e-05 0.000175038)
(-3.38621e-05 -4.23175e-05 0.000182646)
(-2.97042e-05 -3.0302e-05 0.000166651)
(-2.85672e-05 -2.62518e-05 0.000159451)
(-3.46659e-05 -3.4495e-05 0.000159037)
(0.000373034 6.25202e-05 8.22446e-05)
(0.000431225 6.28786e-05 0.000141706)
(0.00035578 3.40473e-05 8.97478e-05)
(0.000341847 6.51043e-05 7.19749e-05)
(0.000359063 4.778e-05 9.50149e-05)
(0.000416987 1.40824e-05 0.000134517)
(0.000403451 1.53278e-05 0.000191309)
(0.000433443 -2.43726e-05 0.000202645)
(0.000426108 4.63745e-06 0.000170162)
(0.000404669 4.05259e-06 0.000207997)
(0.000395479 3.17258e-05 0.00010236)
(0.000413338 -3.01884e-06 0.000109618)
(0.000417327 -5.62198e-06 0.000375002)
(0.00039514 8.40507e-06 0.000406903)
(0.000388386 1.0951e-07 0.000426875)
(0.000349272 8.12261e-06 0.000409276)
(0.000378757 3.93935e-06 0.000444823)
(0.000317631 2.5123e-05 0.000413632)
(0.000447037 9.85261e-07 0.000410875)
(0.000454916 -2.06371e-05 0.000353521)
(0.000455183 -1.04806e-05 0.000337777)
(0.000396821 -1.60522e-06 0.000346658)
(0.000383243 -1.77075e-05 0.00043969)
(0.000396939 -1.06034e-05 0.000393972)
(0.000422132 2.43899e-05 0.000504522)
(0.000481983 -2.71447e-05 0.000256156)
(0.000451945 -4.40905e-05 0.000338588)
(0.000460096 -4.58978e-05 0.000284191)
(0.000474109 -2.84406e-05 0.000354941)
(0.000504526 -7.54086e-05 0.000241339)
(0.000447099 -3.94576e-05 0.000390129)
(0.000420671 -3.60261e-05 0.00045021)
(0.000458322 -6.35299e-05 0.000431068)
(0.000462358 -9.55109e-06 0.000516838)
(0.000539569 -8.7032e-05 0.000419937)
(0.000503596 -9.15147e-05 0.000348467)
(0.000512826 -8.33467e-05 0.000282275)
(0.000500468 -5.9647e-05 0.000353297)
(0.000443586 -4.20437e-05 0.000188737)
(0.00043911 -3.39912e-05 0.000152665)
(0.000470951 -3.61651e-05 0.000192712)
(0.000314789 7.24866e-05 4.25112e-05)
(0.00032703 5.70849e-05 6.87864e-05)
(0.000279331 7.97835e-05 2.10529e-05)
(0.000306633 6.85173e-05 3.88576e-05)
(0.000349954 3.32169e-05 6.23282e-05)
(0.000396014 2.83282e-06 8.54815e-05)
(0.000326002 4.68944e-05 6.04186e-05)
(0.000211922 7.71646e-05 6.95968e-06)
(0.000296375 8.63529e-05 2.28359e-05)
(0.000129537 6.22846e-05 4.26689e-05)
(0.000142335 6.17249e-05 2.06109e-05)
(0.000243948 9.23927e-05 1.34248e-05)
(0.00026067 7.02479e-05 5.05206e-05)
(0.000240188 3.93054e-05 -1.00567e-05)
(0.000284026 4.92037e-05 3.69737e-05)
(0.000343048 3.82925e-05 2.57037e-05)
(0.000237605 7.41856e-05 1.12235e-05)
(0.000228784 5.37483e-05 1.60944e-05)
(0.000307968 5.43879e-05 2.25846e-05)
(0.000570807 -0.00012257 0.000212327)
(0.000562128 -0.000127418 0.000364644)
(0.000546916 -0.000125433 0.000290806)
(0.000575286 -0.000114209 0.000369367)
(0.00045143 -2.28404e-05 0.000125601)
(0.000496724 -9.32464e-05 0.000188184)
(0.000456488 -4.63719e-05 0.000165154)
(0.000462191 -6.59543e-05 0.000170193)
(0.00041314 -1.206e-05 8.21415e-05)
(0.000449329 -5.11314e-05 0.000119589)
(0.000535879 -0.000102751 0.000152892)
(0.000581928 -0.000118591 0.000193819)
(0.000607701 -0.000183982 0.00026166)
(0.000571501 -0.00012688 0.000184353)
(0.000543855 -0.000132216 0.000215205)
(0.000380717 1.80878e-05 4.83532e-05)
(0.000393881 -5.20165e-06 5.08218e-05)
(0.0004256 -5.36627e-05 0.00010693)
(0.000397382 -5.98478e-06 7.7317e-05)
(0.000412531 -3.15334e-05 7.04359e-05)
(0.000324475 3.4471e-05 5.13466e-05)
(0.000372858 -2.76639e-06 4.97925e-05)
(0.000549583 -9.52404e-05 0.000116828)
(0.00057948 -0.000148565 0.000136399)
(0.000603269 -0.000152447 0.000123588)
(0.000467971 -6.65763e-05 0.000120243)
(0.000430754 -3.04454e-05 0.000130569)
(0.000478282 -6.61019e-05 9.89462e-05)
(0.000302681 5.39252e-05 0.00051731)
(0.00032155 3.43517e-05 0.000533992)
(0.000362506 -1.63752e-05 0.000568024)
(0.000361297 8.30757e-06 0.000561616)
(0.000308813 7.19678e-05 0.00052109)
(0.00034827 6.65205e-06 0.000526852)
(0.00044988 -2.6467e-05 0.000670849)
(0.000320973 2.90255e-05 0.000525692)
(0.00035306 1.48519e-05 0.000545214)
(0.000406807 2.5079e-05 0.000626453)
(0.000398916 -1.05503e-05 0.000554898)
(0.000367107 1.23291e-05 0.000519489)
(0.000408298 1.675e-05 0.000585385)
(0.000479418 -1.64179e-05 0.000681954)
(0.00048728 2.10753e-05 0.000802924)
(0.000365377 4.9595e-05 0.000585915)
(0.000417114 4.95271e-05 0.000675372)
(0.000402772 5.51054e-05 0.000675363)
(0.000430777 5.48906e-06 0.000662641)
(0.000570315 -6.69333e-05 0.000806604)
(0.000527329 -0.000110925 0.000706325)
(0.000435021 6.67238e-05 0.000711698)
(0.000455624 -1.16039e-05 0.000673939)
(0.000408244 8.90103e-06 0.000578913)
(0.000459538 8.58092e-06 0.000656027)
(0.000449261 -3.4929e-05 0.000565323)
(0.000405928 -2.50684e-05 0.000491497)
(0.000454878 -1.02286e-05 0.000583723)
(-3.62114e-05 -2.99861e-05 0.000160915)
(0.000524772 -0.000102798 0.000634401)
(0.000493285 -6.8594e-05 0.000539451)
(0.000537784 -2.3445e-05 0.000661485)
(0.000426752 -1.79729e-05 0.000614784)
(0.000495275 -4.96029e-05 0.000634924)
(0.000562584 -4.06679e-05 0.000738381)
(0.000512645 -9.81874e-05 0.000527958)
(0.000503838 -9.15574e-05 0.000441679)
(0.000490474 -3.59174e-05 0.000546313)
(0.000633757 -3.78426e-05 0.000967819)
(0.000441131 1.15101e-05 0.000678534)
(-3.63595e-05 -2.58164e-05 0.000148731)
(0.000471446 -1.56723e-05 0.000678592)
(0.00054388 -8.58433e-06 0.000797618)
(0.000618476 -7.98834e-05 0.000874312)
(0.000630674 -0.000124231 0.000806672)
(0.000461875 -5.6589e-05 0.000585137)
(-4.14762e-05 -2.12585e-05 0.000160486)
(0.000572118 -0.000198315 0.000540261)
(0.000597401 -7.23756e-05 0.000726172)
(0.000608983 -9.12688e-05 0.000835311)
(0.000536371 -9.30854e-05 0.000688822)
(0.000597192 -5.72741e-05 0.000798999)
(0.00066278 -0.000132748 0.00078413)
(0.000591719 -0.000115123 0.000633881)
(0.00072622 -0.000228797 0.000799121)
(0.000645328 -0.000233478 0.000622587)
(0.000677081 -0.000158921 0.000775085)
(0.000479667 2.19691e-05 0.000752737)
(0.000484198 -3.25685e-05 0.000710634)
(0.00059476 -5.10452e-05 0.0008601)
(0.000640769 -5.00344e-05 0.000959852)
(0.000628717 -0.000145997 0.000877305)
(0.000575698 3.2613e-05 0.000872717)
(0.00065964 -0.000103634 0.000987081)
(0.000621611 6.88973e-05 0.000974589)
(0.000583199 -4.84253e-05 0.000869693)
(0.000572299 -8.15168e-05 0.000807029)
(0.000682878 -0.00012489 0.000946818)
(0.000563445 -0.000102816 0.000783856)
(0.000615266 -0.000152823 0.000758448)
(0.000698773 -0.000143101 0.000893971)
(0.000799359 -0.000224259 0.000963586)
(0.000614979 -0.000217206 0.000714562)
(0.000726467 -0.000316229 0.000652163)
(0.000743578 -0.000172027 0.000857288)
(0.00060316 -0.000160136 0.000433746)
(0.00050508 -0.000158351 0.000455258)
(0.000592915 -0.000177213 0.000463319)
(0.000577906 -8.17059e-05 0.000605069)
(0.000637523 -0.000157783 0.000613412)
(0.000632814 -0.000192741 0.00043573)
(0.000586203 -0.000189688 0.000382504)
(0.000648542 -0.000199851 0.000274474)
(0.00059314 -0.00014786 0.000369453)
(0.000684084 -0.000234096 0.000444199)
(0.000694223 -0.000278435 0.000314026)
(0.000681834 -0.000227618 0.000417128)
(0.00070752 -0.000243189 0.000617231)
(-4.41925e-05 -1.70929e-05 0.000158727)
(0.000674661 -0.000285761 0.000463437)
(0.000685544 -0.00021276 0.000606864)
(0.000809255 -0.000353341 0.000725762)
(0.000785492 -0.000378163 0.000502818)
(0.000743405 -0.000252882 0.000672742)
(-4.74805e-05 -1.24081e-05 0.000160036)
(0.000770118 -0.000342347 0.000504167)
(0.000808119 -0.000361341 0.000368213)
(-3.59835e-05 -3.43382e-05 0.000183136)
(0.00070932 -0.000254764 0.000481883)
(0.000635154 -0.000200999 0.000284209)
(-4.0033e-05 -2.70556e-05 0.000186383)
(0.000646777 -0.000182314 0.000241236)
(0.000631532 -0.000192538 0.000254045)
(-3.42728e-05 -3.41673e-05 0.000168445)
(0.000708916 -0.000194525 0.00019595)
(-3.74221e-05 -1.67212e-05 0.000169794)
(-4.07103e-05 -2.86357e-05 0.000183235)
(0.000723783 -0.000309581 0.000267058)
(0.000681041 -0.000237 0.000236647)
(-4.1865e-05 -2.72157e-05 0.000182894)
(0.00067571 -0.000233051 0.000305916)
(0.000435392 -0.000270902 0.00022018)
(-4.53981e-05 -1.97975e-05 0.000178186)
(0.000495108 -0.000317331 0.000171042)
(0.000397132 -0.000259775 0.000168546)
(-4.44207e-05 -2.04458e-05 0.000182308)
(0.000302365 -0.000208009 0.000183071)
(0.000369718 -0.000258712 0.000178373)
(-4.83105e-05 -1.30676e-05 0.000191009)
(0.000269808 -0.000196276 0.000146544)
(0.000327139 -0.000200986 0.000231463)
(-3.71527e-05 -1.96258e-05 0.000164341)
(-3.36647e-05 -1.74089e-05 0.000151581)
(0.00037162 -0.000241514 0.000170736)
(-3.92898e-05 -2.37969e-05 0.000154042)
(-4.11452e-05 -1.82233e-05 0.000168321)
(0.000195672 -0.00013473 0.000154042)
(-3.95986e-05 -1.58495e-05 0.000152908)
(-4.35169e-05 -1.32332e-05 0.000166704)
(0.000257239 -0.000185589 0.000168872)
(-4.21137e-05 -1.26252e-05 0.000151074)
(0.000177535 -0.00012552 0.000132895)
(0.000102113 -6.67976e-05 0.00010148)
(0.000168419 -0.000111471 0.000153708)
(0.000118299 -6.57313e-05 0.000123949)
(8.7036e-05 -5.15432e-05 9.41775e-05)
(0.000135458 -7.58061e-05 0.000133498)
(9.66836e-05 -6.74973e-05 8.99309e-05)
(0.000196588 -0.000116153 0.000179758)
(0.000235807 -0.000147625 0.000168963)
(0.000249991 -0.000217584 8.62292e-05)
(0.000388766 -0.000293255 0.000114797)
(0.000274847 -0.000195128 0.000142145)
(0.000118024 -9.73931e-05 7.20855e-05)
(0.000239556 -0.000197019 0.000107334)
(0.000172963 -0.000124755 0.000123193)
(0.000132721 -9.80932e-05 0.000113402)
(0.000173276 -0.000115786 0.000143648)
(0.000223608 -0.000153062 0.000132989)
(6.20953e-05 -7.05496e-05 3.15232e-05)
(0.000127288 -8.99463e-05 9.88948e-05)
(9.58799e-05 -9.10653e-05 6.48197e-05)
(4.66046e-05 2.23903e-05 8.68305e-05)
(5.91119e-05 -3.23985e-06 9.30041e-05)
(5.65744e-05 2.07422e-05 0.000102149)
(6.128e-05 3.95e-05 0.000109145)
(6.96991e-05 4.95118e-05 0.000110493)
(3.69203e-05 4.18915e-05 7.46352e-05)
(-2.55136e-05 -3.87282e-05 0.000144891)
(3.12336e-05 4.78462e-05 7.66903e-05)
(2.88992e-05 3.40106e-05 4.85062e-05)
(4.60506e-05 5.33908e-05 7.42081e-05)
(2.62873e-05 5.49801e-05 4.08048e-05)
(8.11188e-05 -3.57044e-05 0.0001027)
(-2.83288e-05 -3.54354e-05 0.000147241)
(4.52146e-05 -7.85599e-06 7.1549e-05)
(7.88256e-05 -2.67939e-05 0.000103889)
(6.33704e-05 -2.16614e-05 8.20419e-05)
(4.6153e-05 8.12921e-06 7.77617e-05)