/*--------------------------------*- C++ -*----------------------------------*\
  =========                 |
  \\      /  F ield         | OpenFOAM: The Open Source CFD Toolbox
   \\    /   O peration     | Website:  https://openfoam.org
    \\  /    A nd           | Version:  7
     \\/     M anipulation  |
\*---------------------------------------------------------------------------*/
FoamFile
{
    version     2.0;
    format      ascii;
    class       volScalarField;
    location    "4";
    object      p;
}
// * * * * * * * * * * * * * * * * * * * * * * * * * * * * * * * * * * * * * //

dimensions      [0 2 -2 0 0 0 0];

internalField   nonuniform List<scalar> 
382612
(
0.00215757
0.0019971
0.00205962
0.00206744
0.00186632
0.00232573
0.0021867
0.00203298
0.00185813
0.00178636
0.00190453
0.00189067
0.00190341
0.00195943
0.00199162
0.00215489
0.00198902
0.00213152
0.00208937
0.0021176
0.00214519
0.00218179
0.00221857
0.00228325
0.00225785
0.00222751
0.002201
0.00273776
0.00279384
0.00284026
0.00287871
0.00266093
0.00265031
0.00263721
0.00261607
0.00250501
0.00210977
0.00214074
0.00222439
0.00226776
0.00230634
0.0023414
0.00229545
0.00227315
0.00224462
0.00221124
0.0021239
0.00214253
0.00216952
0.00219231
0.00232524
0.00229759
0.00226651
0.00223399
0.0021807
0.00207467
0.00209067
0.00212137
0.00220286
0.00213243
0.00222354
0.00218877
0.00222051
0.00272454
0.0022278
0.00201956
0.00238021
0.00256821
0.0026743
0.00285181
0.0028766
0.00288175
0.00288497
0.00313267
0.00312006
0.00310304
0.00307143
0.00294005
0.00267139
0.00281085
0.00286477
0.00289987
0.00292443
0.00330245
0.0033083
0.00331291
0.00328116
0.00305381
0.00233051
0.00251061
0.00255637
0.00257924
0.00259452
0.00277281
0.00278653
0.00280205
0.00278647
0.00262828
0.00214095
0.00216531
0.00222058
0.00224645
0.00227408
0.00230521
0.00218988
0.00217725
0.00216333
0.00215625
0.00197647
0.00201179
0.00204166
0.00206467
0.00230436
0.0022708
0.00223553
0.00220172
0.00214153
0.00184975
0.00191027
0.00194915
0.00197423
0.00199173
0.00216146
0.00212531
0.002089
0.00205318
0.00196179
0.00172683
0.00188771
0.00209097
0.00212821
0.00214517
0.0021535
0.00237481
0.00238109
0.00238996
0.0023928
0.00246643
0.00243173
0.00234623
0.00232235
0.00230391
0.00229048
0.00192683
0.00191227
0.00189462
0.00187612
0.00204244
0.00207121
0.00209346
0.00211041
0.0021232
0.00210651
0.00208812
0.00207362
0.00210472
0.00201755
0.00195955
0.00196196
0.00197386
0.00198418
0.00190365
0.00205015
0.00206859
0.00176459
0.00184286
0.00184836
0.00216529
0.00239113
0.00173971
0.00177659
0.00208471
0.00175848
0.00181588
0.00179144
0.00175963
0.00176399
0.001775
0.00178085
0.00238518
0.0023977
0.00241688
0.00243213
0.00237657
0.00184229
0.00182551
0.00182237
0.00182747
0.00183315
0.0022748
0.00229381
0.00232291
0.00235214
0.00235533
0.00200789
0.00218133
0.00220804
0.00221044
0.00220746
0.00220655
0.00194029
0.00194155
0.00194544
0.00195787
0.0015428
0.00155362
0.00156612
0.00157182
0.0020335
0.0020282
0.00202111
0.00201644
0.00204829
0.00154892
0.00153844
0.00202845
0.00193088
0.00153258
0.00177056
0.00198438
0.00165686
0.00196552
0.00194189
0.00167548
0.00147491
0.00183648
0.00191422
0.0017729
0.00156794
0.0018004
0.00193706
0.00198366
0.00205336
0.00199402
0.00186313
0.00176633
0.00205288
0.00194388
0.00201468
0.00209771
0.00205019
0.00204166
0.00216778
0.00220248
0.00199693
0.00197793
0.00202881
0.00204334
0.00206326
0.00208516
0.00231021
0.00230409
0.00229066
0.00224338
0.00257007
0.00254711
0.0025283
0.00251038
0.00304216
0.00302908
0.00301587
0.00298311
0.00281177
0.0026547
0.00256889
0.00260044
0.00262115
0.00262847
0.00263717
0.00225928
0.00225955
0.00225125
0.00223346
0.00224697
0.00280077
0.00277412
0.00278382
0.00279706
0.00280779
0.00265736
0.0026409
0.00261507
0.00259392
0.00261013
0.00292135
0.0028877
0.0028897
0.00290611
0.0029197
0.00318399
0.00318292
0.00318012
0.00316483
0.00306886
0.00296661
0.00312297
0.00316249
0.00318055
0.00319124
0.00368446
0.00368919
0.00369442
0.00366336
0.00341519
0.00254464
0.00260386
0.00262563
0.00265224
0.00267462
0.00272833
0.00271689
0.00270125
0.00266944
0.00252206
0.00225809
0.00237148
0.00241629
0.00244883
0.00247094
0.00286027
0.0028767
0.00290145
0.00290132
0.00274524
0.0018532
0.00189019
0.00190548
0.00193051
0.00195364
0.00216801
0.00220962
0.00223051
0.00224788
0.00225962
0.00205526
0.00203327
0.00200517
0.0019835
0.0019363
0.00253825
0.0026069
0.00259477
0.00256567
0.00254353
0.00178514
0.00177029
0.00175166
0.00174286
0.00174582
0.00237185
0.0023499
0.00231943
0.00228856
0.0022677
0.00164904
0.00164529
0.00164076
0.00165226
0.00173301
0.00180734
0.0017568
0.00175388
0.00176524
0.0017756
0.00211918
0.00213865
0.00216627
0.00219912
0.00225643
0.00176521
0.00167164
0.00166045
0.00166686
0.00167206
0.00213245
0.00214674
0.00216758
0.00218944
0.00219273
0.0019504
0.00205263
0.00206185
0.00206454
0.00206183
0.00205918
0.00189932
0.00189959
0.00190062
0.00190762
0.00168332
0.00168305
0.00168628
0.00168734
0.00197343
0.00197492
0.00197531
0.00197549
0.00198432
0.00169727
0.00191794
0.00186084
0.00185077
0.00185097
0.00185076
0.00175541
0.00188239
0.00207711
0.00201544
0.00199254
0.00197966
0.0019709
0.0018752
0.00187787
0.00188003
0.00187857
0.00202279
0.00201934
0.00201406
0.00200985
0.00202622
0.00202874
0.00203197
0.00203385
0.00191841
0.00192231
0.00192431
0.00192404
0.00205164
0.0020589
0.00206782
0.00207818
0.00211403
0.00192318
0.00203873
0.00207823
0.00203832
0.00174836
0.00195948
0.00195497
0.00172409
0.00165837
0.00193678
0.00194001
0.00164624
0.00210668
0.00212658
0.00206811
0.00201433
0.00187304
0.00202578
0.00185152
0.00189433
0.00187807
0.00199761
0.00206885
0.00201513
0.00200218
0.00199962
0.00199923
0.00200318
0.00200023
0.00199607
0.00199673
0.00202184
0.00218435
0.00217147
0.00216047
0.00215622
0.00215613
0.00213981
0.00214297
0.00214909
0.00216198
0.00219895
0.00205312
0.00205497
0.00205187
0.00205003
0.00204634
0.00204371
0.0020385
0.0020366
0.00203398
0.00203348
0.00191489
0.00191808
0.00191977
0.00191984
0.00199335
0.00199601
0.00199915
0.00200179
0.00201161
0.00190631
0.00206304
0.00203117
0.00202538
0.00202175
0.00201839
0.00199978
0.00203917
0.00200986
0.00198765
0.00198973
0.00199482
0.00199779
0.00212592
0.0021254
0.00212345
0.00212066
0.0021265
0.00222314
0.00222891
0.00222493
0.00222222
0.00222161
0.00214385
0.00214296
0.00214275
0.0021488
0.00218185
0.00217977
0.00216299
0.00215908
0.00215612
0.00215397
0.00203393
0.00203161
0.0020285
0.00202722
0.00205353
0.00205069
0.00204581
0.00204203
0.00205168
0.00205449
0.00205779
0.00205995
0.00205332
0.00205252
0.00205287
0.00205233
0.00219403
0.00218897
0.00218186
0.00217663
0.00219245
0.00207037
0.00206505
0.0020845
0.00213542
0.00201675
0.00204127
0.00205346
0.00198584
0.00181424
0.0019782
0.00203014
0.00192095
0.00216465
0.00211515
0.00208307
0.00212364
0.00203649
0.0020549
0.00214563
0.00210661
0.00218429
0.00213641
0.00210105
0.00207694
0.00207613
0.00208058
0.00208378
0.00219785
0.00219486
0.00218966
0.0021831
0.00218213
0.00225748
0.00226116
0.0022608
0.00226082
0.00226097
0.00221205
0.00221253
0.00221237
0.00221247
0.00222506
0.0022983
0.00229376
0.00229497
0.00229511
0.00229496
0.00227791
0.00227102
0.00226131
0.002251
0.00225014
0.00214606
0.00213587
0.00213289
0.00212908
0.00212505
0.00223086
0.00222378
0.00221474
0.00220368
0.00219022
0.0021109
0.00207748
0.00207791
0.00208033
0.00207973
0.00207851
0.00208073
0.00207849
0.00207573
0.00207908
0.00210106
0.00210195
0.00210324
0.00210421
0.00206619
0.00206733
0.00206873
0.00206931
0.00207081
0.00210639
0.00211573
0.00208129
0.00209725
0.00212526
0.0020203
0.00203696
0.00209901
0.0021223
0.00218903
0.00212353
0.00210675
0.00221096
0.00210127
0.00205603
0.00215483
0.00225996
0.00212044
0.00207038
0.00219397
0.00222359
0.0022406
0.00224506
0.00223085
0.0021735
0.00209317
0.00209673
0.00210239
0.00210551
0.00210715
0.00222361
0.00222385
0.00222558
0.00223001
0.00223198
0.00229353
0.00230123
0.00230154
0.00230173
0.00230215
0.00226434
0.00226038
0.00225422
0.00224652
0.00224695
0.00232093
0.00233856
0.00234446
0.0023464
0.00234732
0.00240655
0.00240438
0.00240283
0.00240057
0.00238268
0.00233538
0.0023394
0.0023475
0.00235587
0.00236161
0.00242452
0.00242343
0.00242124
0.00241349
0.00239016
0.00232939
0.00234022
0.00234741
0.00235255
0.00235569
0.00220982
0.00220593
0.00220037
0.00219177
0.00217308
0.00211052
0.00209216
0.00210276
0.00210669
0.00210647
0.00210471
0.00212709
0.00212383
0.00211924
0.00211464
0.00215959
0.00216438
0.00217044
0.00217752
0.00212234
0.0021196
0.00211425
0.00210452
0.002087
0.00214688
0.00223187
0.00225564
0.00226542
0.00227392
0.00228096
0.00228278
0.00227467
0.00226617
0.00225709
0.0022242
0.00212536
0.00208681
0.0021195
0.00212845
0.0021346
0.00214169
0.00219153
0.00217964
0.00216627
0.00215534
0.00218836
0.00219925
0.00220914
0.00221683
0.00217971
0.00216905
0.0021592
0.00214581
0.00209868
0.00215911
0.00220218
0.00212397
0.00208266
0.00214768
0.00221719
0.00213344
0.00210849
0.00218703
0.00222011
0.00212261
0.00218081
0.00229634
0.00226327
0.00210936
0.00212225
0.00220679
0.0025923
0.00226589
0.00222672
0.00248612
0.00222125
0.00212433
0.00203886
0.00201089
0.0017933
0.0019128
0.00195135
0.00187725
0.00185739
0.00196982
0.00201614
0.00193018
0.00193144
0.00202938
0.00199129
0.00180571
0.00206651
0.00201951
0.00208872
0.00206705
0.00214838
0.00210154
0.00208813
0.00208461
0.00208373
0.00206919
0.00207066
0.00207538
0.00208688
0.00209833
0.00217334
0.00216768
0.00215956
0.0021557
0.00215427
0.00202662
0.00202596
0.00202385
0.00201875
0.00201311
0.0020267
0.00199987
0.00198955
0.00198656
0.00198616
0.0020695
0.00206946
0.00207095
0.00207548
0.0020815
0.00213887
0.00213564
0.00213523
0.00213698
0.00213834
0.00219779
0.0021965
0.00219236
0.00218435
0.00217699
0.00225764
0.00227792
0.00229092
0.00229522
0.00229635
0.00238152
0.00237866
0.00237528
0.00237042
0.00235617
0.0024066
0.00242687
0.00243368
0.00243753
0.00243984
0.00251418
0.00250987
0.00250401
0.00249439
0.00246825
0.00247385
0.00250496
0.00251689
0.00252363
0.00252795
0.00243515
0.00242702
0.00241621
0.0024056
0.00239136
0.00239933
0.00243616
0.00244945
0.00245525
0.00245876
0.00236021
0.00235898
0.00235512
0.00234378
0.00230107
0.00232126
0.00236702
0.00238018
0.00238262
0.00238212
0.00218737
0.00217668
0.00216484
0.00215813
0.00215564
0.00217197
0.00218436
0.0021956
0.00215241
0.00214412
0.00213469
0.00212233
0.00209503
0.00214778
0.0021565
0.00216386
0.00217318
0.00218073
0.00224863
0.00224804
0.002246
0.00224224
0.00223316
0.00220478
0.00222967
0.00223804
0.00224349
0.00224768
0.00214611
0.00213727
0.00212748
0.0021222
0.00208359
0.00209266
0.00210152
0.0021102
0.00211224
0.00210559
0.00209956
0.00209332
0.00211087
0.00211202
0.00211803
0.00212414
0.00222955
0.00223187
0.00223342
0.00223036
0.00221546
0.00211524
0.00207925
0.00206958
0.00209983
0.00207517
0.00204367
0.00211983
0.00218902
0.00220867
0.0021167
0.00214142
0.00229333
0.00206478
0.00206313
0.00210643
0.0020874
0.00212394
0.00207602
0.00216758
0.00229069
0.00219194
0.00210236
0.00207694
0.0021395
0.00193759
0.0019826
0.00196393
0.00183102
0.00207758
0.00209699
0.00211741
0.00227008
0.0024228
0.00257374
0.00264815
0.00263454
0.00253728
0.00238286
0.00219387
0.00200173
0.00179829
0.00160414
0.00150336
0.00151129
0.00151679
0.00151522
0.00151195
0.0016889
0.00168695
0.00168657
0.00169244
0.00170503
0.00181928
0.00184245
0.0018532
0.00185376
0.00185175
0.00197819
0.00197529
0.00197271
0.00197406
0.00197489
0.00201536
0.00204075
0.00204062
0.00203938
0.00203941
0.00209472
0.00209495
0.00209193
0.00207932
0.00204
0.00219385
0.00220114
0.00220398
0.0022078
0.00221127
0.00227972
0.00227736
0.00227532
0.00227131
0.0022402
0.00226203
0.00230636
0.00232192
0.00232791
0.00233016
0.00239708
0.00239042
0.002382
0.00237349
0.00236095
0.00239991
0.00243334
0.00244924
0.00245724
0.00246117
0.00253896
0.00253394
0.00252742
0.00251725
0.00248589
0.00250303
0.00254281
0.00255451
0.00256063
0.00256493
0.00246547
0.00245855
0.00244957
0.00243946
0.00241582
0.00241262
0.0024427
0.00245188
0.00245607
0.00245846
0.00234182
0.00233221
0.00232081
0.00231315
0.002314
0.00234246
0.00235838
0.00236604
0.00237179
0.00237593
0.002321
0.00232149
0.0023213
0.00231861
0.00230543
0.00230222
0.00230038
0.00230377
0.0023073
0.0023098
0.00220164
0.00220027
0.00219799
0.00219683
0.00220757
0.00213897
0.0021349
0.0021374
0.00214031
0.00214189
0.00214251
0.00213965
0.00213662
0.00213546
0.00214459
0.00206395
0.00203509
0.0020353
0.00204128
0.00204705
0.00205212
0.0020758
0.00206977
0.00206204
0.00205664
0.00209299
0.00209503
0.00209942
0.00210317
0.00208254
0.00207896
0.00207545
0.00207008
0.002061
0.00209883
0.00211662
0.00208706
0.00208662
0.00210067
0.00205128
0.00205237
0.00206839
0.00207957
0.00219606
0.00210783
0.00197411
0.00187014
0.0019359
0.00200104
0.00196686
0.00189341
0.00190536
0.00194679
0.00198283
0.00198127
0.0020483
0.00203519
0.00205046
0.00206196
0.00194111
0.00199538
0.00198196
0.00189658
0.00178593
0.00203504
0.00223606
0.00244122
0.00257159
0.00259381
0.00250568
0.00231813
0.00205286
0.00177489
0.00150226
0.00126404
0.00117804
0.00119802
0.00120049
0.001195
0.00118888
0.00131739
0.00131473
0.00131325
0.00131692
0.00132692
0.00155953
0.00158867
0.00159675
0.00159256
0.00158598
0.00173638
0.00173308
0.00173031
0.00173085
0.00173133
0.00191337
0.00191561
0.00191771
0.00192105
0.00192384
0.00200252
0.00199713
0.00199032
0.00198381
0.00196895
0.00214443
0.00215449
0.00216176
0.00216913
0.00217461
0.00218398
0.00217729
0.00216901
0.00216055
0.00214328
0.00227047
0.00227546
0.00228117
0.0022885
0.00229428
0.00240449
0.00240113
0.00239476
0.0023822
0.00235418
0.00242204
0.00244004
0.00244953
0.00245784
0.00246442
0.00248447
0.00248072
0.00247543
0.00246703
0.0024437
0.0023995
0.00241464
0.00241842
0.0024218
0.00242459
0.0023858
0.00238293
0.00237974
0.00237911
0.00238018
0.00232119
0.00232787
0.00233398
0.00234171
0.00234793
0.00249716
0.00249479
0.00249119
0.00248118
0.00244314
0.0024672
0.00244937
0.00247313
0.00245274
0.00240124
0.00243981
0.00245095
0.00245459
0.00245601
0.0023421
0.00233881
0.00233386
0.00232872
0.00232561
0.00233867
0.00234771
0.00235299
0.00235467
0.00235531
0.00232512
0.00232485
0.00232365
0.00231942
0.00231678
0.00226883
0.00227556
0.00227745
0.00227802
0.0022782
0.002145
0.00214263
0.00214012
0.00214245
0.0021663
0.00224529
0.00223809
0.00223002
0.00222499
0.00222244
0.0021462
0.00214832
0.00215268
0.00216351
0.00219965
0.00207885
0.00205871
0.00205324
0.00205227
0.00205188
0.0020528
0.00204835
0.0020482
0.00204866
0.00205521
0.00201155
0.00201732
0.00202174
0.00202468
0.0020729
0.00207256
0.00207186
0.00206684
0.00205443
0.00200888
0.00207696
0.00211183
0.002038
0.0020189
0.00205469
0.00216578
0.00209858
0.0020782
0.00209225
0.00209777
0.00209795
0.00209694
0.00199476
0.00199429
0.00199298
0.0019939
0.00201484
0.00201553
0.00203622
0.00203628
0.00203184
0.00202749
0.00203628
0.00204197
0.00204796
0.00204772
0.00202491
0.00198644
0.00199699
0.00200435
0.00200592
0.0020062
0.00200748
0.00200393
0.00200757
0.00201006
0.00200676
0.00199122
0.00199348
0.00199877
0.00200259
0.00203966
0.00203764
0.00203512
0.00203039
0.0020266
0.00201408
0.00210917
0.00206346
0.00203472
0.00200761
0.00189457
0.00198727
0.00196003
0.00182576
0.00180621
0.00192746
0.00187067
0.0017139
0.00184986
0.0019158
0.00199021
0.00204401
0.00188452
0.00190659
0.00194215
0.0019239
0.00193391
0.00196859
0.00201654
0.0019931
0.00205191
0.00204164
0.00200717
0.00198654
0.00181308
0.00195732
0.00200338
0.00192839
0.00209199
0.00207272
0.00200538
0.00201211
0.00195154
0.00198076
0.00195644
0.00196212
0.00155615
0.00181139
0.00179655
0.00145906
0.00142923
0.00177656
0.00186959
0.0017812
0.00165314
0.00184881
0.00178352
0.00153793
0.00165483
0.00184441
0.00190567
0.0016634
0.00155581
0.00184635
0.00183175
0.00149023
0.00148365
0.00182232
0.00188768
0.00160565
0.00152002
0.00186047
0.00188644
0.00153825
0.00165515
0.00166887
0.00160782
0.001608
0.00153438
0.00152599
0.00152828
0.00152829
0.00169092
0.00168959
0.00168825
0.00169741
0.00176183
0.00210852
0.0020234
0.0019965
0.00198115
0.00197198
0.00170662
0.00170334
0.00169979
0.00171163
0.00180279
0.00208916
0.00205612
0.00203307
0.00201922
0.00201156
0.0019029
0.00189357
0.00188381
0.00188818
0.00196105
0.00182298
0.00174734
0.00160533
0.00160778
0.00155148
0.00154311
0.00154398
0.00154329
0.00174565
0.00174732
0.00174791
0.00175024
0.00178557
0.00204053
0.00198839
0.00196756
0.00195925
0.00195567
0.001817
0.001814
0.00181051
0.0018172
0.00187655
0.00209089
0.0020768
0.00206135
0.00205249
0.00204766
0.00190318
0.00190003
0.00189737
0.00190746
0.00198341
0.00191118
0.00187018
0.00178042
0.00177052
0.00173475
0.00168233
0.0016748
0.00167661
0.00167879
0.00189847
0.00190201
0.00190986
0.00192618
0.00194206
0.00199329
0.00197111
0.00195652
0.00195079
0.00194896
0.00190269
0.0019007
0.00189794
0.00189918
0.00192492
0.00196742
0.00193545
0.00193282
0.00193418
0.00193505
0.0019683
0.00209001
0.00203279
0.00195024
0.00178924
0.00172019
0.0017038
0.0017047
0.0017063
0.00170648
0.00192342
0.00192345
0.00192878
0.00194434
0.00196203
0.00195114
0.00193982
0.00193292
0.00193282
0.00193505
0.00179479
0.00179662
0.00179608
0.00178862
0.0017775
0.00170724
0.00167839
0.00166655
0.00166452
0.0016651
0.00147112
0.00147332
0.00147422
0.00146969
0.00146481
0.00133651
0.00132086
0.00130924
0.00130499
0.00130367
0.00129505
0.00129523
0.00129722
0.00130622
0.00132923
0.00110155
0.00108792
0.00108099
0.00108033
0.0010817
0.00107928
0.0010826
0.00108891
0.00109782
0.00110613
0.000960866
0.00092384
0.000919137
0.000919033
0.000919415
0.000944176
0.000939895
0.000936965
0.000939651
0.000968395
0.00126247
0.00128751
0.00129152
0.00128479
0.00127649
0.00136451
0.00135983
0.0013549
0.00135472
0.00136708
0.00157933
0.00157931
0.00158455
0.00159107
0.00159635
0.00186287
0.0018679
0.00187123
0.00186082
0.00180489
0.00195472
0.00198672
0.00199245
0.0019945
0.00199708
0.00202881
0.00203168
0.00203201
0.00201997
0.00197595
0.00209749
0.00210763
0.00211299
0.00211644
0.00211989
0.00226469
0.00226398
0.00226192
0.00225202
0.00221923
0.00216393
0.00216918
0.00217491
0.00217746
0.00217756
0.00232067
0.00231579
0.00231224
0.00231192
0.00231409
0.00221163
0.0022135
0.00221783
0.00221957
0.0022197
0.00225173
0.00225237
0.00225317
0.00225112
0.0022409
0.00217399
0.00215587
0.00215407
0.00215528
0.0021564
0.00226594
0.00226634
0.00226953
0.00227946
0.00229011
0.00228549
0.00225601
0.00224688
0.00224525
0.00224559
0.00210813
0.0021068
0.0021047
0.0021035
0.00211903
0.00207657
0.00206139
0.0020614
0.00206235
0.00206256
0.00217604
0.00218271
0.00219552
0.00221785
0.00224323
0.0022443
0.0022307
0.00221113
0.00219815
0.00219079
0.00216659
0.00216952
0.00217654
0.00219199
0.00221619
0.00223043
0.00220303
0.00219889
0.00219764
0.00219843
0.00205853
0.00205706
0.00205552
0.00205712
0.00207326
0.00194869
0.00194196
0.00196508
0.00197382
0.00198163
0.00198734
0.00203356
0.00203485
0.00203504
0.00202118
0.00209316
0.00209113
0.00208863
0.00208729
0.00204933
0.00204683
0.00204557
0.0020481
0.00206665
0.00208647
0.0020288
0.0020451
0.00200075
0.00195719
0.00216814
0.00207377
0.00200729
0.00197121
0.0018543
0.00194393
0.00192131
0.00183975
0.00186801
0.00188371
0.00195779
0.00196016
0.00193001
0.00196912
0.00198352
0.00193156
0.0018739
0.00195033
0.00196688
0.00190639
0.00189327
0.00193691
0.00190514
0.00187055
0.00190478
0.00168516
0.00156377
0.0014775
0.00144952
0.00147653
0.00153155
0.00157659
0.0015762
0.00150283
0.00136002
0.00116718
0.000981385
0.000821782
0.000681626
0.000718779
0.000703599
0.000703278
0.000706018
0.000708181
0.000924075
0.000935233
0.000947265
0.000950954
0.000932048
0.000984784
0.000975205
0.000969889
0.000966658
0.000964914
0.00108675
0.00109695
0.00110725
0.00110632
0.00107746
0.00117479
0.0011436
0.00114325
0.00115214
0.00116073
0.00147041
0.00147986
0.00148857
0.00148075
0.00143055
0.00157184
0.0015695
0.00157258
0.0015796
0.00158498
0.00182438
0.00181844
0.00181183
0.00180705
0.00180528
0.0017562
0.00177963
0.00178515
0.00178557
0.00178456
0.00174845
0.00175385
0.00175705
0.0017521
0.00174106
0.00198517
0.00197075
0.00196884
0.00197578
0.00198296
0.00209987
0.00209703
0.00209616
0.00210254
0.00212429
0.00198926
0.00199783
0.00200025
0.00199874
0.00199691
0.00194528
0.00194715
0.00194885
0.00195035
0.00196479
0.00216034
0.00215093
0.00213891
0.00213668
0.0021385
0.00216839
0.00216774
0.00217004
0.0021823
0.002215
0.00201959
0.00201175
0.00201129
0.00201145
0.00201057
0.00205561
0.00205666
0.00205794
0.00205908
0.0020603
0.00203661
0.00200271
0.00199602
0.00199483
0.00199446
0.0021853
0.00219158
0.00220343
0.00222145
0.0022302
0.001984
0.00197855
0.00198059
0.00198109
0.00198084
0.00196784
0.00196668
0.00196272
0.00195429
0.00195338
0.00191569
0.00191679
0.00192781
0.00193601
0.00194043
0.00198489
0.00198011
0.00197195
0.00195723
0.0019366
0.00180606
0.0018337
0.00185157
0.00186111
0.00186585
0.00204715
0.00204279
0.00203568
0.00201811
0.00196375
0.00214514
0.00215101
0.00214382
0.00213809
0.00213541
0.00203387
0.00204122
0.00204848
0.00204576
0.00198194
0.00198507
0.00199086
0.0019956
0.00202382
0.00201648
0.0020076
0.0020003
0.00200218
0.00201013
0.00200731
0.00200296
0.00222113
0.00222119
0.00222288
0.00221787
0.00215771
0.00194346
0.00200659
0.00203446
0.0019177
0.00186731
0.00202224
0.00201162
0.00187029
0.00188106
0.0020414
0.00206301
0.0020688
0.00206893
0.00206998
0.00193597
0.00193003
0.00191921
0.00190598
0.00209268
0.00210324
0.00209781
0.00209418
0.00195838
0.00195614
0.00195154
0.00194045
0.00192869
0.00216955
0.00212079
0.00211053
0.00210094
0.00209559
0.00210884
0.00210791
0.00210785
0.00210962
0.00221254
0.00193931
0.00200227
0.00199206
0.00199251
0.00199521
0.00199664
0.0020287
0.00203436
0.00204008
0.00203231
0.00197213
0.00199056
0.00199446
0.00199714
0.00198477
0.00198229
0.00197895
0.0019735
0.00194897
0.00184115
0.00182281
0.00200319
0.00199885
0.00197443
0.00194042
0.00194536
0.00194605
0.00190081
0.00207002
0.00200332
0.00194694
0.00199273
0.00201117
0.00194086
0.00196738
0.00193131
0.00186559
0.00170291
0.00149845
0.0012902
0.00113901
0.00104998
0.00103642
0.00106726
0.00109214
0.00106974
0.000992895
0.000876135
0.000776128
0.000649053
0.000570402
0.000485178
0.000535203
0.000529441
0.000522077
0.000512097
0.000503776
0.00054121
0.000539986
0.00054111
0.000549682
0.00058646
0.000708582
0.000715931
0.000710037
0.000697797
0.000686095
0.000768654
0.000767183
0.000766879
0.000774525
0.000800744
0.00103414
0.000999983
0.000987152
0.000983464
0.000982551
0.001172
0.00118098
0.00118856
0.00118657
0.00117174
0.00141778
0.00138295
0.00137664
0.00138236
0.0013898
0.00162374
0.00162238
0.00162293
0.00163179
0.00166018
0.0015243
0.00152539
0.00152422
0.00152083
0.00151845
0.0014962
0.00150213
0.00150706
0.00150986
0.00152944
0.00182997
0.00180234
0.00178685
0.00178497
0.00178829
0.00189741
0.00189781
0.00190193
0.00191892
0.00196516
0.00174147
0.0017415
0.00174028
0.00173754
0.00173517
0.00173352
0.00173632
0.00173955
0.00174534
0.00177092
0.00200184
0.00198682
0.0019683
0.00195935
0.00195685
0.00200097
0.00200434
0.00201403
0.00203631
0.00206338
0.00215316
0.00210814
0.00208774
0.00207926
0.00207619
0.00181677
0.0018168
0.00181312
0.00180478
0.00180809
0.0018499
0.00184703
0.00185431
0.00185875
0.0018601
0.00191637
0.0019149
0.00191296
0.00191187
0.00191471
0.00195825
0.00196679
0.00196846
0.00196852
0.00196854
0.00203819
0.00203828
0.00203822
0.00203543
0.00201854
0.001976
0.00198697
0.00198935
0.00198981
0.00198953
0.00196403
0.00195715
0.00194534
0.00192584
0.0018967
0.00191044
0.00190728
0.00191448
0.00192121
0.00192537
0.00208585
0.00209284
0.00210367
0.0021126
0.00209132
0.00197282
0.00202906
0.00203055
0.00202462
0.00201944
0.00197431
0.00197401
0.00197203
0.00196694
0.00194066
0.00206046
0.00205031
0.00204413
0.00203982
0.00203875
0.00197696
0.00181842
0.00199267
0.0019347
0.00187142
0.00216594
0.00176743
0.00188932
0.002285
0.00180977
0.00198807
0.00272406
0.00187059
0.00214523
0.0020609
0.00245431
0.00194671
0.00172337
0.00137052
0.00107047
0.000832366
0.00074139
0.000745878
0.000789732
0.00080651
0.000752795
0.00064828
0.000541205
0.000447346
0.000399617
0.000348386
0.000416093
0.000416741
0.000411665
0.000406176
0.000402217
0.000353618
0.000361101
0.000367868
0.000372465
0.000383593
0.000580417
0.000556429
0.000538086
0.000528428
0.000523925
0.000724321
0.000731851
0.000743397
0.000760855
0.000797032
0.000809486
0.000780608
0.000773988
0.000766737
0.000759343
0.00107435
0.00107899
0.00109145
0.00112003
0.00116617
0.0013798
0.0013224
0.00130115
0.00129109
0.00128577
0.00130891
0.0013142
0.00131998
0.00132752
0.00136215
0.00167909
0.0016423
0.00161748
0.0016078
0.00160537
0.00173083
0.00173411
0.00174194
0.00176032
0.00180327
0.00148819
0.00146555
0.00146466
0.00146615
0.00146683
0.00159411
0.00159483
0.00159624
0.00159905
0.00161313
0.00169418
0.00169132
0.00168796
0.00168445
0.00168189
0.0017709
0.00177805
0.00178672
0.00178838
0.00176325
0.00179487
0.00181724
0.00181284
0.0018022
0.00179264
0.00196109
0.00196935
0.00198161
0.00198768
0.00195395
0.00192918
0.00193769
0.00193806
0.00193855
0.00193879
0.00191402
0.00191262
0.00190912
0.00190339
0.00188488
0.00198698
0.00201358
0.00202163
0.00202643
0.00202982
0.00206477
0.00206584
0.00206729
0.00206445
0.00203253
0.00199833
0.00199657
0.00199873
0.00200318
0.00200661
0.00215795
0.00216696
0.00218023
0.00218469
0.00212959
0.00192382
0.00187035
0.0018738
0.00188887
0.00189991
0.00207936
0.00207645
0.00207194
0.00206821
0.00206578
0.00199766
0.00196848
0.00196484
0.00196603
0.00196645
0.00204978
0.00205772
0.00206855
0.00207351
0.0020455
0.00189169
0.00196742
0.00196688
0.00195571
0.00194617
0.00203251
0.00204165
0.00205681
0.00206195
0.00197364
0.00182452
0.0018346
0.00184164
0.0018449
0.00184588
0.00201668
0.00202296
0.00202856
0.00202497
0.0019957
0.00199414
0.00189855
0.001853
0.00200546
0.00201069
0.00184896
0.00188938
0.00189402
0.00189256
0.00188995
0.0019928
0.00199735
0.00200195
0.00200546
0.00199209
0.00189261
0.00187331
0.00194577
0.00193325
0.00185288
0.00189651
0.00195363
0.00195092
0.00183133
0.00185079
0.00196401
0.00197248
0.00194469
0.00219239
0.0020716
0.00203275
0.00208218
0.00204737
0.00201339
0.00195343
0.00186113
0.00188444
0.00197022
0.00198826
0.00195424
0.00198941
0.00200741
0.00200021
0.00197594
0.00201352
0.00200387
0.00205312
0.0021355
0.00210091
0.00202873
0.00201152
0.00203723
0.00195945
0.00199844
0.00201578
0.00201801
0.00201346
0.00200817
0.0020112
0.00198691
0.0019609
0.00198336
0.00195533
0.00192285
0.00179913
0.00191046
0.00191938
0.00180096
0.00185636
0.00195447
0.00190542
0.0018618
0.0018792
0.00190228
0.00193853
0.00194079
0.00193616
0.0019314
0.00191363
0.00195603
0.00200336
0.00192992
0.00194338
0.00198205
0.00199473
0.0019622
0.00194771
0.00200675
0.00220269
0.00199124
0.00196997
0.00208475
0.00197411
0.00197364
0.00182184
0.00157765
0.00123133
0.000880197
0.000728846
0.000763056
0.00110347
0.00129002
0.00163537
0.00182408
0.00185722
0.00187312
0.00188446
0.00218747
0.0022032
0.00221981
0.00222292
0.00215988
0.00154591
0.00163951
0.00165358
0.00165312
0.00164811
0.0022945
0.00231713
0.00234475
0.00235258
0.00229106
0.00162885
0.00161856
0.00161924
0.00162198
0.00162153
0.00234658
0.00237071
0.00240483
0.00243289
0.00237841
0.00235072
0.00249229
0.00250802
0.0024974
0.00248538
0.00176099
0.00176346
0.00176076
0.00174713
0.0016838
0.00146673
0.00155793
0.00156161
0.00155994
0.00155821
0.00201105
0.00202204
0.00203518
0.00204756
0.00208572
0.00153413
0.00150941
0.0015099
0.00151219
0.00151015
0.00152257
0.00152403
0.00152633
0.00153301
0.00154722
0.00204289
0.00195795
0.00192954
0.00191405
0.00190363
0.00180996
0.00182276
0.00184435
0.00187663
0.00189845
0.00192099
0.00183292
0.00180901
0.00179917
0.00179366
0.00176034
0.0017678
0.0017827
0.00180945
0.00185564
0.00175142
0.00168325
0.0016735
0.00167702
0.00168112
0.00148645
0.00144251
0.00143772
0.00143829
0.00143711
0.00151115
0.0015103
0.00150758
0.0015091
0.00154096
0.00185877
0.00182917
0.00180723
0.0017951
0.00178981
0.00172001
0.00171924
0.00172204
0.00174397
0.00184613
0.0017637
0.00175987
0.00176287
0.00176439
0.00176444
0.00179223
0.00179068
0.00178768
0.00178472
0.00179258
0.00184678
0.00175956
0.0016606
0.00147389
0.00139745
0.00138541
0.00138896
0.00139082
0.00139033
0.00168115
0.00168435
0.00169173
0.00171081
0.00173939
0.00173871
0.00170925
0.00169236
0.00168638
0.00168437
0.00145346
0.00145569
0.00145729
0.00145428
0.00144812
0.00136936
0.00135241
0.00133945
0.00133262
0.00132891
0.00115644
0.00115945
0.00116702
0.00118342
0.00120032
0.00112947
0.00111865
0.00110836
0.00110442
0.00110333
0.000935754
0.000940162
0.000943523
0.00094176
0.000936863
0.000950318
0.000962247
0.000963251
0.000956859
0.000949131
0.000758649
0.00075918
0.000762146
0.000771126
0.000789275
0.000809112
0.000790192
0.000785515
0.000784905
0.000784787
0.000770949
0.000772529
0.000776508
0.000786855
0.000813112
0.000743148
0.000748779
0.000743707
0.000733741
0.000724744
0.000547884
0.000547839
0.000548527
0.000553362
0.000572111
0.000616653
0.000591183
0.000586585
0.000586071
0.000586131
0.000574508
0.000575424
0.000577921
0.000585718
0.000613981
0.000727894
0.000740239
0.000734765
0.0007239
0.000714496
0.000672675
0.000671652
0.000670999
0.000674715
0.000698076
0.000841616
0.000821139
0.000817393
0.000819759
0.000822289
0.000773244
0.000677428
0.00067047
0.00064382
0.000635665
0.000631753
0.0006292
0.000587258
0.000558408
0.000609116
0.000620329
0.000618151
0.000610953
0.00060449
0.000530881
0.000528136
0.000526515
0.000531296
0.000563661
0.000511889
0.000489846
0.000484805
0.00048149
0.000478476
0.000448713
0.000448923
0.000450066
0.000454764
0.000474804
0.000385245
0.000366047
0.00036167
0.000363201
0.000364953
0.000411823
0.000413826
0.000418139
0.00042937
0.000456727
0.000503875
0.000493338
0.000486921
0.000476583
0.000466824
0.000613657
0.000613227
0.00061683
0.00063265
0.000672967
0.000879297
0.000834157
0.000814408
0.000805425
0.000800668