/*--------------------------------*- C++ -*----------------------------------*\
  =========                 |
  \\      /  F ield         | OpenFOAM: The Open Source CFD Toolbox
   \\    /   O peration     | Website:  https://openfoam.org
    \\  /    A nd           | Version:  7
     \\/     M anipulation  |
\*---------------------------------------------------------------------------*/
FoamFile
{
    version     2.0;
    format      ascii;
    class       volVectorField;
    location    "4";
    object      wallShearStress;
}
// * * * * * * * * * * * * * * * * * * * * * * * * * * * * * * * * * * * * * //

dimensions      [0 2 -2 0 0 0 0];

internalField   uniform (0 0 0);

boundaryField
{
    outlet1
    {
        type            calculated;
        value           uniform (0 0 0);
    }
    Wall
    {
        type            calculated;
        value           nonuniform List<vector> 
40276
(
(0.000335884 5.33431e-05 0.000192647)
(-0.000185993 -7.48711e-06 0.000414977)
(-0.000189546 -6.87627e-06 0.000406667)
(0.000155298 -0.00013295 0.000149169)
(0.000117975 -8.84794e-05 0.000129297)
(8.29805e-05 -4.52706e-05 0.000124797)
(7.61507e-05 -1.40102e-05 0.000130306)
(0.000100737 6.01874e-06 0.00014767)
(8.57728e-05 1.79577e-05 0.000141562)
(8.32602e-05 5.73366e-06 0.000146324)
(0.000438321 4.49486e-05 0.000467335)
(0.000528695 2.09387e-05 0.000510116)
(0.000585248 3.75601e-05 0.000939414)
(0.000563911 4.19854e-05 0.000871657)
(0.000374726 1.10076e-06 0.000292041)
(0.00034015 1.91948e-05 0.00032775)
(0.00036171 3.72345e-05 0.000122773)
(0.000335208 3.23379e-05 6.85968e-05)
(-3.59504e-05 -7.90885e-05 -4.99447e-05)
(-3.45108e-05 -0.00010612 -4.91206e-05)
(-0.000133171 3.39936e-05 0.000209535)
(-0.000162953 3.86535e-05 0.000197101)
(-0.000111933 3.03028e-05 6.72661e-05)
(-0.000130005 2.79708e-05 6.36996e-05)
(-9.54775e-05 2.26819e-05 4.30171e-05)
(-0.000107446 2.37205e-05 3.73901e-05)
(-0.00010705 3.74478e-05 1.64464e-05)
(-0.000105695 3.77586e-05 1.19059e-05)
(-0.000177717 5.70974e-05 3.40725e-05)
(-0.000155512 4.77237e-05 2.45728e-05)
(-0.000138655 4.56176e-05 8.99765e-05)
(-0.000157762 5.53769e-05 9.90027e-05)
(-5.25872e-05 -3.11144e-06 0.000159721)
(-4.68287e-05 -4.79727e-06 0.000148454)
(-5.24889e-05 9.7477e-06 6.79126e-06)
(-5.19034e-05 1.09569e-05 6.49241e-06)
(0.000584967 5.76479e-05 0.000161173)
(0.000632819 3.33817e-05 0.000164921)
(0.00112209 0.000266486 0.000312076)
(0.00129058 0.000353631 0.000335075)
(0.00100285 4.92454e-05 8.30315e-05)
(0.000945063 1.80561e-05 0.000107929)
(-3.58411e-05 -1.45824e-05 -0.000400801)
(-1.46253e-05 -1.18169e-05 -0.000374182)
(-3.67314e-05 -1.25844e-06 -0.000375254)
(-3.40014e-05 -6.66066e-06 -0.000320987)
(-6.2941e-05 5.26383e-07 -0.00032935)
(-4.89529e-05 -3.39819e-06 -0.000275647)
(-6.19434e-05 -6.18827e-07 -0.00024656)
(-6.31722e-05 1.64711e-06 -0.000213476)
(-5.39044e-05 -1.74295e-06 -0.000184205)
(-6.7496e-05 2.11812e-06 -0.000191653)
(-6.14085e-05 -4.97586e-07 -0.00016143)
(-6.48429e-05 3.29418e-06 -0.000162123)
(0.000439056 7.23917e-05 0.000222535)
(0.000452648 8.63454e-05 0.000191959)
(-3.64375e-05 2.10591e-05 0.000167255)
(6.38753e-05 2.21208e-05 0.000190287)
(-3.06631e-05 1.61687e-05 0.000170497)
(-0.000453605 -5.73011e-05 -0.000433773)
(-0.000477936 -4.91238e-05 -0.000440555)
(1.89915e-05 3.45648e-05 0.000290261)
(-1.27203e-05 -1.16232e-05 0.000224329)
(8.57547e-06 -3.46036e-07 -1.05516e-05)
(1.12713e-05 6.91513e-07 -5.85848e-06)
(8.08473e-06 5.83334e-08 -6.41168e-06)
(5.22675e-06 -6.35319e-07 -6.74488e-06)
(8.75571e-06 2.03733e-08 -9.36328e-06)
(-0.000103624 -1.06539e-05 -9.46983e-05)
(-0.000113856 -2.56261e-07 -0.000102437)
(-6.32589e-05 5.76097e-06 -0.000140674)
(-6.22781e-05 -3.54115e-07 -0.000143877)
(-2.99814e-05 2.24447e-06 -3.04465e-05)
(-2.96575e-05 2.23716e-06 -2.91716e-05)
(-2.6231e-05 2.15606e-06 -2.72204e-05)
(-2.5114e-05 2.77246e-06 -2.60495e-05)
(-2.85735e-05 1.30237e-06 -2.76574e-05)
(2.23533e-05 -1.37686e-06 -8.96987e-06)
(1.93992e-05 -1.54624e-06 -1.25437e-05)
(1.74993e-06 3.91708e-06 -9.53143e-08)
(2.65446e-06 3.22779e-07 -5.08224e-08)
(8.55323e-06 -1.71458e-07 -5.31729e-07)
(1.79564e-05 -2.30511e-06 1.23446e-05)
(1.69722e-05 -2.35904e-06 1.24174e-05)
(2.20427e-05 -7.41364e-06 1.53296e-05)
(8.33866e-06 1.65339e-07 -2.63345e-06)
(5.74696e-06 -3.83177e-07 -3.20067e-06)
(8.36042e-06 1.14033e-07 2.73528e-07)
(2.01402e-05 -7.77004e-06 1.44733e-05)
(1.81801e-05 -1.02136e-05 1.35773e-05)
(1.54811e-05 -9.81187e-06 1.21445e-05)
(-3.44288e-05 -2.3013e-06 -3.12535e-05)
(5.95337e-06 -2.00477e-07 -4.18858e-07)
(8.10073e-06 9.90452e-08 2.35737e-06)
(5.96485e-06 -1.22553e-07 1.61229e-06)
(5.52951e-06 -4.74396e-08 2.9372e-06)
(4.9088e-06 -3.71045e-08 3.77915e-06)
(4.14834e-06 -5.72304e-08 4.22418e-06)
(1.02795e-06 3.30173e-08 3.13048e-06)
(1.32728e-07 -1.81967e-09 2.73282e-06)
(-8.02192e-07 -4.26452e-08 2.1663e-06)
(-4.36972e-06 -1.80778e-09 -2.05356e-06)
(-4.80329e-06 -3.66973e-08 -3.01837e-06)
(-3.8908e-05 1.11278e-06 -3.42393e-05)
(-5.17766e-06 -7.79797e-09 -4.1332e-06)
(-1.3228e-05 -8.17934e-06 -1.60347e-05)
(-1.08168e-05 -8.27641e-06 -1.25996e-05)
(-5.29595e-06 -7.10024e-08 -5.19973e-06)
(-5.33172e-06 -2.35093e-08 -6.43243e-06)
(-4.93236e-06 -2.01017e-07 -7.14313e-06)
(-5.24331e-06 -2.20433e-08 -7.87078e-06)
(-4.72612e-06 -2.6958e-07 -8.73734e-06)
(-4.63494e-06 -1.56622e-07 -9.3085e-06)
(-4.2472e-06 -5.27817e-07 -1.05111e-05)
(-4.20964e-06 -8.4345e-07 -1.01001e-05)
(3.39063e-06 -9.34322e-07 -2.49648e-05)
(2.66901e-06 -2.84118e-06 -2.70411e-05)
(7.4019e-07 -2.91706e-06 -2.58056e-05)
(-0.000267982 -6.23091e-05 0.000482029)
(-0.000270368 -6.06783e-05 0.000437242)
(-9.20937e-06 -1.24741e-06 5.69937e-06)
(-1.10485e-05 -1.61195e-06 8.97834e-06)
(-3.10258e-05 -2.51479e-06 2.19459e-05)
(-2.46554e-05 -3.38958e-06 1.90927e-05)
(-1.60541e-06 -1.68548e-05 -2.10221e-06)
(-1.21307e-07 -1.61771e-05 -4.55566e-07)
(-0.000127757 2.65957e-05 0.000184445)
(-0.000110809 3.55409e-05 0.000156709)
(-0.000160128 -1.553e-05 0.000274199)
(-0.000139977 -2.15004e-05 0.00023615)
(-0.000103783 -4.71455e-06 0.000174258)
(-9.08226e-05 -7.82602e-06 0.000150012)
(-0.000158455 9.62669e-05 0.000473712)
(-0.000221309 0.000168718 0.000665988)
(8.64331e-06 -1.23208e-05 0.00018873)
(1.76116e-07 -5.14052e-06 0.000159148)
(-0.000101901 2.74717e-05 0.000193051)
(-5.53461e-05 1.17919e-06 0.000167631)
(-0.000184426 -4.88792e-05 0.000498315)
(-0.000185436 -3.05841e-05 0.000498044)
(-0.000184901 -3.84968e-05 0.000529462)
(-0.000202363 -1.43409e-05 0.000531879)
(-0.00055912 2.63003e-06 -0.000151181)
(-0.000641078 3.21198e-06 -0.000183221)
(-2.27587e-05 -7.9679e-05 9.95923e-06)
(-2.65529e-05 -7.89428e-05 1.19255e-05)
(-2.14895e-05 -4.38108e-05 6.53967e-05)
(-2.52454e-05 -5.35877e-05 8.17178e-05)
(-2.90656e-05 -5.24911e-05 6.60087e-05)
(-2.32414e-05 -4.0407e-05 5.36816e-05)
(-1.54705e-05 -8.61483e-05 8.488e-06)
(-1.98977e-05 -9.8356e-05 6.53336e-06)
(-2.35037e-05 -8.34825e-05 8.82016e-06)
(-2.18901e-05 -8.649e-05 9.21349e-06)
(-2.3136e-05 -0.000128638 -1.56102e-05)
(-1.99744e-05 -0.000111411 -1.41257e-05)
(-7.64352e-06 -5.66214e-05 -3.31682e-06)
(-9.87938e-06 -5.05366e-05 -4.75767e-06)
(-6.09732e-05 -3.11204e-05 9.45379e-05)
(-5.57594e-05 -3.29439e-05 8.93355e-05)
(8.04004e-05 4.58624e-06 -0.000238591)
(8.57011e-05 -3.90571e-06 -0.000223983)
(-0.000136382 -5.79869e-05 -1.23884e-05)
(-0.00013528 -6.48484e-05 -1.45592e-05)
(-0.000303582 -4.83744e-05 0.000139392)
(-0.000325629 -5.26471e-05 0.000129962)
(-0.000288902 -7.19277e-05 -2.58322e-05)
(-0.000282257 -5.94652e-05 -3.49167e-05)
(-0.000170177 0.000193614 0.000231768)
(-0.000163653 0.000242175 0.000214721)
(-0.000247986 -4.44821e-05 1.31356e-05)
(-0.00013034 -4.61482e-05 -1.83531e-05)
(-0.000206692 -7.78978e-05 7.46889e-05)
(-0.000178138 -7.63782e-05 6.31774e-05)
(-0.00022687 -5.18076e-05 5.86452e-05)
(-6.69221e-05 -4.15895e-05 -7.0372e-06)
(-3.91156e-05 -2.08985e-05 6.05214e-05)
(-3.22345e-05 -1.93758e-05 5.58754e-05)
(0.000663857 -0.000278704 0.000458961)
(0.000588167 -0.000232387 0.000374504)
(0.000602663 -0.000358256 0.000236987)
(0.000535246 -0.000250065 0.000263847)
(0.000556117 -0.000306704 0.000243666)
(0.00033741 -0.00027355 0.000181391)
(0.000440754 -0.000321426 0.000216524)
(0.000348138 -0.000263259 0.000185383)
(0.00053524 -0.000268959 0.000382359)
(0.000575369 -0.000332733 0.000369235)
(0.000550131 -0.000309487 0.000308446)
(0.000459589 -0.000344418 0.000185237)
(0.000559142 -0.000376563 0.000181696)
(0.000467726 -0.000302881 0.000228397)
(0.000216953 -0.000182022 0.00015432)
(0.000327084 -0.000279873 0.000178826)
(0.000258059 -0.000203655 0.000175325)
(0.000205265 -0.000177021 0.000160384)
(8.97275e-05 -5.18203e-05 0.000126793)
(0.000203528 8.00283e-05 9.61555e-05)
(0.000255402 8.42355e-05 0.000133046)
(0.000225823 6.22142e-05 0.000141473)
(0.000236785 5.19384e-05 9.35121e-05)
(0.000287679 5.54973e-05 0.000123717)
(0.000251959 7.81205e-05 0.000132435)
(0.000233562 6.39065e-05 0.000120146)
(8.85211e-05 -1.17514e-06 0.000174523)
(8.22703e-05 7.46205e-06 0.00016064)
(0.000106273 1.74263e-05 0.000157385)
(0.000123966 9.83709e-06 0.00018757)
(0.00011074 1.15633e-05 0.000164611)
(9.68422e-05 1.83113e-05 0.000144872)
(0.000115748 2.28344e-06 0.000193632)
(8.45563e-05 -2.30159e-06 0.000169593)
(5.31032e-05 -2.07874e-05 0.00013915)
(6.15754e-05 -2.36134e-05 0.000135149)
(8.12146e-05 7.45281e-06 0.000129708)
(4.70381e-05 -2.38844e-05 0.000106079)
(6.16041e-05 -7.40115e-06 9.76839e-05)
(4.89069e-05 -1.75919e-05 0.000109188)
(1.30409e-05 -3.91846e-05 8.8465e-05)
(2.41805e-05 -2.91779e-05 7.90684e-05)
(0.00010348 3.7516e-05 0.000132826)
(0.000116747 4.55481e-05 0.000129726)
(0.000118323 4.43161e-05 0.000131811)
(0.000116555 4.84787e-05 0.000111363)
(7.18809e-05 6.53846e-06 0.000148425)
(7.4948e-05 1.53132e-05 0.000124895)
(7.51284e-05 2.79544e-05 8.85384e-05)
(7.90486e-05 2.92257e-05 8.63829e-05)
(6.46347e-05 1.67258e-05 9.56221e-05)
(0.000179367 6.98123e-05 9.00072e-05)
(0.000132585 5.58747e-05 8.25843e-05)
(0.000201415 7.17484e-05 9.63151e-05)
(0.000194295 5.82006e-05 8.73519e-05)
(0.000150608 5.99267e-05 6.9418e-05)
(0.000150253 5.20804e-05 7.6175e-05)
(4.21325e-05 -1.52241e-05 0.000114866)
(4.06036e-05 -6.49092e-06 0.000104235)
(2.75691e-05 -2.84163e-05 0.000113418)
(3.1392e-05 -4.07314e-06 8.87177e-05)
(3.25268e-06 -3.19093e-05 6.74601e-05)
(7.60459e-06 -1.62343e-05 5.91729e-05)
(5.10475e-05 1.33179e-05 8.14358e-05)
(8.17935e-05 3.38429e-05 6.44005e-05)
(8.01127e-06 -4.23665e-06 2.9104e-05)
(2.9086e-05 9.0915e-06 4.01685e-05)
(1.22226e-05 3.69507e-07 2.79791e-05)
(5.96819e-05 3.01941e-05 2.98335e-05)
(9.70845e-05 4.54475e-05 2.55792e-05)
(0.000100581 3.78803e-05 5.24749e-05)
(9.28941e-05 4.09705e-05 4.0733e-05)
(0.000299511 2.13797e-05 0.000522477)
(0.000338534 4.9984e-05 0.000613762)
(0.000302038 -6.15886e-06 0.000537114)
(0.000308956 2.35282e-05 0.000544594)
(0.000395782 0.000111189 0.000447653)
(0.000434443 0.000119816 0.000540078)
(0.000310019 0.000107553 0.000445732)
(0.000342668 0.000102421 0.000513818)
(0.000308633 0.000107016 0.000476136)
(0.00029289 8.97128e-05 0.000495044)
(0.000418414 0.000164237 0.000556065)
(0.000351218 0.00014011 0.000419149)
(0.000406588 0.000149348 0.000528266)
(0.000256752 9.5813e-05 0.000430196)
(0.000347748 0.000125188 0.000538733)
(0.000447927 0.00014325 0.000432238)
(0.000387649 0.000142396 0.0004936)
(0.000385622 0.000141789 0.000500967)
(0.000430018 0.000138045 0.000603102)
(0.000451731 0.000177139 0.000540811)
(0.000494287 0.000191469 0.000533965)
(0.000472926 0.000192145 0.000493896)
(0.000465787 0.000160601 0.000594954)
(0.000452406 0.000164694 0.000598184)
(0.000456825 8.54666e-05 0.000537015)
(0.000581159 9.19923e-05 0.000572356)
(0.000445334 0.000106798 0.000550088)
(0.000334901 0.000104788 0.000418807)
(0.000425768 0.000102158 0.000526391)
(0.000463582 8.00455e-05 0.000460927)
(0.000344256 6.34659e-05 0.000342924)
(0.000366907 0.000110913 0.000402696)
(0.000402382 9.3569e-05 0.000397722)
(0.000399588 0.000103148 0.000382082)
(0.000560663 -4.17983e-05 0.000502758)
(0.000581016 -6.22918e-05 0.000500271)
(0.000607765 -0.000168197 0.00046776)
(0.000460919 -7.10596e-05 0.000415728)
(0.000556427 -0.000142912 0.000351459)
(0.00042872 -1.03526e-05 0.000378253)
(0.000602611 -0.000157412 0.000371326)
(0.000395843 -3.24593e-05 0.000307859)
(0.000518836 -0.000120106 0.000282245)
(0.000633792 -0.000258919 0.000269926)
(0.000370352 6.3647e-05 0.000385601)
(0.000371002 9.24887e-05 0.000396441)
(0.00041126 2.27768e-05 0.000317985)
(0.000403466 6.57999e-05 0.000331243)
(0.000434353 0.000156854 0.000418989)
(0.000455618 0.000156896 0.000547762)
(0.000460232 0.000157627 0.000498939)
(0.000479229 0.000138601 0.000406702)
(0.000534889 0.000175264 0.00044662)
(0.000521328 0.000198537 0.000557663)
(0.000457744 0.000158752 0.000549989)
(0.000489962 0.00015971 0.000584759)
(0.000494559 0.000181839 0.000414029)
(0.000474591 0.000167884 0.000555828)
(0.000476579 0.000172446 0.000560213)
(0.000585591 0.000211656 0.00068028)
(0.000566948 0.000203503 0.000535912)
(0.000428703 0.000124809 0.000387983)
(0.00060546 0.000191124 0.000436419)
(0.000480431 0.000109186 0.000394073)
(0.000617166 0.000155444 0.000396954)
(0.000537069 0.000187691 0.000446676)
(0.000545139 0.000172665 0.00052477)
(0.00072553 0.000275573 0.000534768)
(0.000575513 0.000196516 0.000426591)
(0.00055302 0.000168452 0.000452679)
(0.000770908 0.00027425 0.000478046)
(0.000580917 0.000252699 0.000489982)
(0.000619449 0.000215324 0.00060937)
(0.000575933 0.00018691 0.000646303)
(0.000679975 0.000235294 0.000619977)
(0.000683655 0.000243253 0.000598364)
(0.000356769 0.000136021 0.000480871)
(0.000352871 0.000129914 0.00048252)
(0.000240039 6.63366e-05 0.000449621)
(0.000352021 0.000129022 0.000521112)
(0.000436382 0.000117223 0.000665607)
(0.00040132 0.000108097 0.000618795)
(0.000378698 0.000136546 0.000506377)
(0.000401953 0.000147491 0.000532655)
(0.000385651 0.000141972 0.000579583)
(0.000361343 5.34763e-05 0.000654314)
(0.000311732 3.13302e-05 0.00059098)
(0.000370038 9.89891e-05 0.000627263)
(0.000345541 8.59462e-05 0.00060001)
(0.000309624 2.92856e-05 0.000513328)
(0.000424215 0.000160136 0.000550687)
(0.000449357 0.00012962 0.000637231)
(0.000396902 0.00011039 0.000611653)
(0.00038231 -1.83391e-05 0.000639734)
(0.000479937 0.000135171 0.000735457)
(0.000360157 4.83176e-05 0.000634015)
(0.000466055 0.000179354 0.00054673)
(0.000511154 0.000192188 0.000593006)
(0.000457177 0.000136483 0.000657781)
(0.000435942 0.000163192 0.000575278)
(0.000507498 0.000195242 0.000585986)
(0.000508569 0.000117831 0.000719905)
(0.000513713 0.00013249 0.000795829)
(0.000408203 3.14237e-05 0.000695783)
(0.0003717 3.16827e-05 0.000617154)
(0.000404136 6.00571e-05 0.000659725)
(0.000460997 0.000117737 0.00069455)
(0.000391944 5.88786e-05 0.000617121)
(0.000513073 0.000206534 0.000618682)
(0.000515548 9.40881e-05 0.00076675)
(0.000593656 0.000179425 0.000862413)
(0.000273967 2.70522e-06 0.000480795)
(0.000287911 4.36443e-05 0.000498784)
(0.0003468 0.00012328 0.00054425)
(0.00036603 7.54049e-05 0.000619752)
(0.000339885 1.71342e-05 0.000564654)
(0.000432529 8.3216e-05 0.000690259)
(0.000327338 -2.11821e-05 0.000553511)
(0.000332686 2.62034e-05 0.000554621)
(0.000420887 0.000133431 0.000662347)
(0.00034521 3.92832e-05 0.000585831)
(0.000296744 2.96311e-05 0.000497288)
(0.000363183 -7.50133e-06 0.0005975)
(0.000310247 3.52964e-05 0.000519428)
(0.000343069 3.96394e-05 0.000563969)
(0.000415285 3.20749e-05 0.000677937)
(0.000322395 8.31024e-05 0.000553192)
(0.000320822 5.08942e-05 0.00053783)
(0.000406971 -6.35561e-05 0.000621499)
(0.000476007 0.000117059 0.000753053)
(0.000407425 -3.51745e-05 0.000691833)
(0.000519824 5.66085e-05 0.000850594)
(0.000397264 -3.44554e-07 0.00066741)
(0.000418468 1.69379e-05 0.000693118)
(0.000529148 0.000150281 0.000771739)
(0.000422041 4.41112e-05 0.000674934)
(0.000480808 2.41654e-05 0.0007674)
(0.000514468 3.74071e-05 0.000842073)
(0.000519068 1.39733e-05 0.000831018)
(0.000415586 3.06256e-05 0.00066423)
(0.000467382 3.44726e-05 0.000741605)
(0.00041678 1.71325e-05 0.000660414)
(0.000472622 4.60724e-05 0.000747328)
(0.000553202 0.000170828 0.000711345)
(0.000545994 0.000192134 0.000640922)
(-2.10138e-05 -4.91001e-05 0.000160354)
(0.000567973 0.000144551 0.000796139)
(0.000493881 0.000130033 0.000689017)
(0.000628937 0.000230942 0.000687339)
(0.000578412 0.000219148 0.000616064)
(0.000618027 0.000214029 0.000697351)
(-2.52739e-05 -4.87679e-05 0.000159794)
(0.000553101 0.000171025 0.000737181)
(0.000563987 0.00020053 0.000671483)
(0.000613663 0.000222833 0.000706943)
(0.000561947 0.000162641 0.000787187)
(0.000627108 0.000167308 0.000928679)
(-2.29134e-05 -4.85546e-05 0.000157056)
(0.000467459 5.71051e-05 0.000748416)
(0.000433029 5.02185e-05 0.000717852)
(0.000465023 7.81869e-05 0.000721009)
(0.000529516 4.93552e-05 0.000806999)
(0.00046403 9.53994e-05 0.000715187)
(-2.53849e-05 -3.80556e-05 0.000160069)
(0.00057803 0.000227113 0.000680875)
(0.000601195 0.000114231 0.000856021)
(0.000688479 0.000210833 0.000944854)
(0.000662141 0.000218621 0.000789283)
(0.000732257 0.00025924 0.000664275)
(0.000796077 0.000298532 0.000658714)
(0.000649447 0.000186545 0.00084845)
(0.000609715 0.000173311 0.00076299)
(0.000642994 0.000263373 0.000630679)
(0.000677105 0.000242211 0.000688032)
(0.000656272 0.000209358 0.000773786)
(0.000717489 0.000245379 0.000819798)
(0.000752556 0.000288723 0.000795471)
(0.000670806 0.000208549 0.000854151)
(0.000690525 0.000166281 0.00095631)
(0.000564392 0.00013043 0.000800482)
(0.000635156 0.00013583 0.000990996)
(0.00051264 9.21614e-05 0.000770616)
(0.000596408 7.90568e-05 0.000904611)
(0.000742498 0.000245131 0.000941069)
(0.000615359 0.000193261 0.000787464)
(0.000660985 0.000173392 0.000942091)
(0.000550748 9.18448e-05 0.000887415)
(0.000565924 0.000144374 0.00081033)
(0.00074765 0.00013428 0.00104929)
(0.000645489 0.000138221 0.00100517)
(0.000594346 5.86448e-05 0.000954894)
(0.000589444 2.47883e-05 0.000938431)
(0.000478573 2.15094e-05 0.000796128)
(0.000468547 5.03727e-05 0.000745834)
(0.000608199 0.000115414 0.000882034)
(0.000624844 0.000127866 0.000974819)
(0.000581912 2.39843e-05 0.000911998)
(0.000601141 4.45604e-05 0.000944781)
(0.000605853 -2.57816e-05 0.000942406)
(0.00058172 5.17283e-05 0.000892105)
(0.000680784 0.000132933 0.000988638)
(-3.13622e-05 -4.31535e-05 0.000168461)
(0.000510891 1.04999e-06 0.00083389)
(0.000463422 5.089e-05 0.000732406)
(0.000664871 0.000162109 0.000977594)
(0.000700062 0.000202615 0.00104438)
(0.000578759 2.94985e-06 0.00096412)
(0.000729853 7.8237e-05 0.00114838)
(0.000538077 5.55107e-05 0.000843841)
(0.000660292 4.30251e-05 0.00101288)
(0.000530131 8.18011e-05 0.000840737)
(0.000507746 1.1693e-05 0.000780246)
(0.00064563 -6.99619e-05 0.000959958)
(0.000714191 5.48545e-05 0.00112949)
(0.000712211 3.61834e-05 0.00112038)
(0.000327562 -4.80111e-05 0.000471921)
(0.000251427 1.80159e-05 0.000387987)
(0.000276533 1.24664e-05 0.000398648)
(0.00026205 7.49298e-06 0.000398704)
(0.000189974 3.36783e-05 0.000337846)
(0.000245379 3.04494e-05 0.000387635)
(0.00031096 1.15422e-05 0.00041543)
(0.000241542 4.68559e-05 0.000390301)
(0.000320009 3.84407e-05 0.000566202)
(0.000317229 5.26453e-05 0.000534383)
(-2.31259e-05 -4.18005e-05 0.000153621)
(-2.67962e-05 -4.3829e-05 0.00016052)
(-2.47948e-05 -4.04982e-05 0.000148683)
(-2.62782e-05 -3.6814e-05 0.000149545)
(0.000348447 3.70874e-05 0.000551924)
(0.000312638 7.46121e-05 0.000504796)
(0.000364877 2.25063e-05 0.00050089)
(0.000319214 4.32483e-05 0.000451467)
(0.000353188 6.78297e-06 0.000476231)
(0.000342002 3.0381e-05 0.000457155)
(-2.97221e-05 -3.6201e-05 0.000154933)
(0.000357815 1.27653e-05 0.000474368)
(-3.50483e-05 -2.88667e-05 0.00016501)
(-3.01376e-05 -3.45815e-05 0.000156012)
(0.000338488 2.8721e-05 0.00023103)
(0.00032235 3.03503e-05 0.000248911)
(0.000314532 1.09432e-05 0.000249123)
(-3.34788e-05 -3.44209e-05 0.000154035)
(-2.65306e-05 -3.83068e-05 0.000164722)
(-2.59241e-05 -4.18514e-05 0.00016126)
(-3.23333e-05 -3.37434e-05 0.000175159)
(-3.38757e-05 -4.22834e-05 0.000182774)
(-2.9716e-05 -3.02659e-05 0.000166758)
(-2.85753e-05 -2.6206e-05 0.000159553)
(-3.46788e-05 -3.44632e-05 0.000159127)
(0.000304935 6.04505e-05 0.000119266)
(0.000353143 6.03097e-05 0.000163285)
(0.000293611 3.93263e-05 0.000126884)
(0.000284796 6.16225e-05 0.000116278)
(0.000308228 5.17228e-05 0.000140523)
(0.000348364 2.67828e-05 0.00017144)
(0.000333767 2.89269e-05 0.0002142)
(0.000371921 2.22232e-06 0.000234042)
(0.000365848 2.19461e-05 0.000204755)
(0.000332176 2.45604e-05 0.000229009)
(0.000344523 4.35183e-05 0.000152161)
(0.000358655 1.86774e-05 0.000164738)
(0.000335627 1.42042e-05 0.000339955)
(0.000313237 2.40009e-05 0.000356994)
(0.000333059 1.3434e-05 0.0003873)
(0.000288305 2.21036e-05 0.000366461)
(0.000312846 1.13483e-05 0.000382447)
(0.000260217 3.10858e-05 0.000357603)
(0.000375509 2.9767e-05 0.000397033)
(0.000390342 3.97911e-06 0.000348787)
(0.000376934 1.13126e-05 0.000327854)
(0.000325497 1.57577e-05 0.000323176)
(0.000337662 7.62342e-06 0.000421347)
(0.000344352 9.91202e-06 0.000373518)
(0.000367741 3.77643e-05 0.000465567)
(0.000397195 1.1952e-05 0.000291232)
(0.000399077 -8.11138e-06 0.000361172)
(0.000397588 -1.371e-05 0.000300792)
(0.000413226 1.08536e-06 0.000362928)
(0.000427519 -2.26816e-05 0.000295508)
(0.000382844 7.31814e-06 0.000408389)
(0.00037989 -2.01414e-06 0.000449939)
(0.000407579 -2.73042e-05 0.000430927)
(0.000413617 1.95269e-05 0.000502719)
(0.000471309 -1.75977e-05 0.000462148)
(0.000458066 -4.17891e-05 0.00039296)
(0.000456333 -4.36811e-05 0.00031368)
(0.000454393 -1.59863e-05 0.000391499)
(0.000394406 -9.75371e-06 0.000238521)
(0.000388554 -8.6716e-06 0.000197301)
(0.000415802 -4.20354e-06 0.000239558)
(0.000259941 6.49118e-05 8.37989e-05)
(0.000281108 5.72348e-05 0.000110106)
(0.000227899 6.74245e-05 5.92277e-05)
(0.00026866 6.51354e-05 7.71155e-05)
(0.000310057 4.05683e-05 0.000111286)
(0.000359603 1.85378e-05 0.000140314)
(0.000300749 5.23266e-05 0.000104305)
(0.000164386 6.00843e-05 3.38811e-05)
(0.000259863 7.73393e-05 4.92387e-05)
(7.99267e-05 3.55064e-05 4.59735e-05)
(0.000103224 4.40381e-05 3.37756e-05)
(0.00020519 7.75795e-05 2.71459e-05)
(0.000235896 6.61939e-05 7.42234e-05)
(0.000218114 3.80371e-05 1.06232e-05)
(0.000267383 5.21331e-05 6.85575e-05)
(0.000327812 4.0438e-05 4.82952e-05)
(0.000212863 6.68447e-05 2.3454e-05)
(0.000210848 5.11004e-05 3.21003e-05)
(0.000296511 5.51114e-05 4.00268e-05)
(0.000503984 -5.72242e-05 0.000291337)
(0.000523188 -6.63444e-05 0.000431713)
(0.000497618 -6.74521e-05 0.000355147)
(0.000536635 -5.52608e-05 0.000434373)
(0.000409408 4.45941e-06 0.000188838)
(0.000457751 -5.03321e-05 0.000252317)
(0.000423519 -1.72758e-05 0.000220649)
(0.000428798 -2.74333e-05 0.000237892)
(0.000393987 7.63916e-06 0.000138997)
(0.000429347 -2.02893e-05 0.000192964)
(0.000513464 -7.14954e-05 0.000213581)
(0.000564697 -6.91032e-05 0.000288471)
(0.00057562 -0.000120063 0.000346951)
(0.000549342 -8.31921e-05 0.000265693)
(0.000503291 -6.78821e-05 0.000302924)
(0.000371814 2.42229e-05 7.44217e-05)
(0.000393645 5.63419e-06 9.16506e-05)
(0.000432354 -3.85625e-05 0.000152292)
(0.000403382 1.81216e-06 0.000106207)
(0.000415644 -1.5939e-05 0.000117181)
(0.000321827 3.87352e-05 7.37472e-05)
(0.000375747 5.49524e-06 8.14351e-05)
(0.000549113 -6.60387e-05 0.00018694)
(0.000570559 -0.000108146 0.000219918)
(0.000617127 -0.000128989 0.000188138)
(0.000491514 -5.41604e-05 0.00016737)
(0.000453006 -2.39015e-05 0.000162165)
(0.000493912 -5.37269e-05 0.000141586)
(0.000286149 5.06249e-05 0.000488081)
(0.000303428 2.92644e-05 0.000501013)
(0.000339221 -2.11499e-05 0.000528409)
(0.000336033 1.09996e-05 0.000523757)
(0.000285888 6.67613e-05 0.000481559)
(0.000318342 4.94629e-06 0.000479853)
(0.000431422 -2.73962e-05 0.000641305)
(0.000302311 3.08773e-05 0.000496573)
(0.000333135 1.38772e-05 0.000512968)
(0.000377908 2.38246e-05 0.000582331)
(0.000369362 -2.34364e-07 0.00052165)
(0.000338816 1.94744e-05 0.000487106)
(0.000369888 2.06266e-05 0.000535389)
(0.000459149 -1.03837e-05 0.000655366)
(0.000474539 2.29293e-05 0.000782143)
(0.000353873 4.84603e-05 0.000566548)
(0.000399186 4.8595e-05 0.000646263)
(0.0003952 6.14714e-05 0.000664514)
(0.000420606 9.85142e-06 0.000648126)
(0.000554364 -6.43204e-05 0.000784292)
(0.000509437 -9.29487e-05 0.000689957)
(0.000413931 7.889e-05 0.000687357)
(0.000431736 3.74647e-06 0.000650416)
(0.000381878 2.59623e-05 0.000558703)
(0.000425166 2.00473e-05 0.000617112)
(0.000416119 -7.93821e-06 0.000550074)
(0.000367274 9.98067e-06 0.000485059)
(0.0004116 1.09575e-05 0.000551249)
(-3.62237e-05 -2.99434e-05 0.000160996)
(0.000493802 -6.17728e-05 0.000632119)
(0.000449437 -1.40472e-05 0.000551755)
(0.000498235 1.22933e-05 0.000647595)
(0.000406042 8.5395e-06 0.00060432)
(0.000467245 -1.55721e-05 0.000628384)
(0.000532556 -2.08718e-05 0.000712769)
(0.000474058 -4.62925e-05 0.000546038)
(0.000454474 -4.06771e-05 0.000460325)
(0.000450514 8.05921e-06 0.000558093)
(0.000627323 -2.87108e-05 0.0009604)
(0.000429883 3.33311e-05 0.000672308)
(-3.63714e-05 -2.5776e-05 0.000148798)
(0.000457648 1.23187e-05 0.000677242)
(0.000524267 1.45193e-05 0.000782044)
(0.000610049 -4.40588e-05 0.000880738)
(0.000607016 -8.05474e-05 0.000806323)
(0.000435139 -6.14282e-06 0.000596716)
(-4.14904e-05 -2.12162e-05 0.000160555)
(0.000528397 -0.000128618 0.000559111)
(0.000562735 -2.25832e-05 0.000730056)
(0.000595403 -4.06236e-05 0.000853514)
(0.000510939 -2.20094e-05 0.000715328)
(0.000574469 -3.26312e-06 0.000806967)
(0.00063802 -6.17863e-05 0.00082008)
(0.000552738 -1.44066e-05 0.000700352)
(0.000702282 -0.000136937 0.000850999)
(0.000599367 -0.000108477 0.000693644)
(0.000647834 -6.4114e-05 0.000825852)
(0.000476622 4.17259e-05 0.000753236)
(0.000479386 -8.40589e-06 0.000713865)
(0.000586885 -3.55321e-05 0.000853554)
(0.000644167 -2.01144e-05 0.000974779)
(0.000623456 -9.94047e-05 0.000894685)
(0.000565443 8.39933e-05 0.000886306)
(0.000668019 -6.61563e-05 0.00101241)
(0.000623527 0.000113639 0.000993793)
(0.00058313 1.71807e-05 0.000901716)
(0.000566992 -3.72762e-06 0.000844903)
(0.000678155 -6.42446e-05 0.000971443)
(0.000549096 -3.25777e-05 0.000812151)
(0.000590534 -5.88029e-05 0.000802522)
(0.000680516 -7.71352e-05 0.00091626)
(0.00078698 -0.000125186 0.0010169)
(0.000595129 -0.000100755 0.000787433)
(0.000678569 -0.000162811 0.000751069)
(0.000727411 -5.72456e-05 0.000936479)
(0.000531904 -6.70276e-05 0.000498408)
(0.000461877 -8.45948e-05 0.000490747)
(0.000545571 -0.000107219 0.000504462)
(0.000539065 -1.89703e-05 0.000636529)
(0.000614277 -7.79621e-05 0.000683933)
(0.000582224 -8.052e-05 0.000541962)
(0.000559548 -0.000114857 0.000469087)
(0.000597294 -0.00012413 0.000364015)
(0.000571858 -7.83658e-05 0.000459322)
(0.000656618 -0.000143327 0.000548249)
(0.000649786 -0.000185585 0.000416762)
(0.000661436 -0.000139382 0.000528689)
(0.000677562 -0.000144719 0.000695813)
(-4.42071e-05 -1.70447e-05 0.00015879)
(0.000618061 -0.000155385 0.000564943)
(0.00065327 -0.000112681 0.000687423)
(0.000780245 -0.000228032 0.000823015)
(0.000723224 -0.000221645 0.000626035)
(0.000723799 -0.000131689 0.000785222)
(-4.74962e-05 -1.23567e-05 0.000160095)
(0.000742704 -0.000227722 0.000623711)
(0.000767098 -0.000271704 0.000459971)
(-3.59985e-05 -3.42974e-05 0.00018326)
(0.000703836 -0.000149392 0.000626617)
(0.000614214 -0.000134 0.000383871)
(-4.00503e-05 -2.7009e-05 0.000186504)
(0.000633639 -0.000136597 0.000325337)
(0.000619138 -0.000120745 0.000370713)
(-3.4286e-05 -3.41256e-05 0.000168548)
(0.000723316 -0.000150916 0.000295358)
(-3.74365e-05 -1.66688e-05 0.000169891)
(-4.07269e-05 -2.85898e-05 0.000183339)
(0.000696222 -0.000231473 0.000367305)
(0.000693264 -0.000203661 0.000314738)
(-4.18841e-05 -2.71652e-05 0.000183011)
(0.00067971 -0.000151048 0.000451059)
(0.000518249 -0.000347657 0.000216966)
(-4.54184e-05 -1.97408e-05 0.000178293)
(0.000568507 -0.000386961 0.000151797)
(0.000459464 -0.000327377 0.000146866)
(-4.44396e-05 -2.03927e-05 0.000182412)
(0.000381297 -0.000294518 0.000181252)
(0.000444455 -0.000341865 0.000162936)
(-4.83312e-05 -1.30097e-05 0.00019111)
(0.000330928 -0.000272699 0.000130562)
(0.000402818 -0.000280182 0.000234102)
(-3.71676e-05 -1.95785e-05 0.000164428)
(-3.3675e-05 -1.73573e-05 0.000151659)
(0.000442733 -0.000320062 0.000147199)
(-3.93044e-05 -2.37547e-05 0.000154114)
(-4.11612e-05 -1.81688e-05 0.000168406)
(0.000265448 -0.000222764 0.00015638)
(-3.96121e-05 -1.57976e-05 0.000152976)
(-4.35336e-05 -1.31765e-05 0.000166783)
(0.000330075 -0.00027996 0.00015686)
(-4.21285e-05 -1.25716e-05 0.000151136)
(0.000236478 -0.000204939 0.000128452)
(0.000148731 -0.000143145 9.82503e-05)
(0.000235517 -0.000207018 0.000152557)
(0.000167624 -0.000140929 0.000126928)
(0.000137141 -0.000123268 0.000103639)
(0.000197792 -0.000155116 0.000138338)
(0.000142877 -0.000131695 9.91786e-05)
(0.000266063 -0.000192659 0.00019704)
(0.000304171 -0.000229077 0.000160372)
(0.000324885 -0.000303048 8.06686e-05)
(0.000468438 -0.000374071 0.000103314)
(0.000332617 -0.000258341 0.000137843)
(0.000175036 -0.000168124 7.5883e-05)
(0.000312451 -0.000277428 0.000111082)
(0.00022658 -0.000183202 0.000135499)
(0.00019518 -0.000174788 0.000133234)
(0.000230461 -0.000173704 0.000164725)