/*--------------------------------*- C++ -*----------------------------------*\
  =========                 |
  \\      /  F ield         | OpenFOAM: The Open Source CFD Toolbox
   \\    /   O peration     | Website:  https://openfoam.org
    \\  /    A nd           | Version:  7
     \\/     M anipulation  |
\*---------------------------------------------------------------------------*/
FoamFile
{
    version     2.0;
    format      ascii;
    class       volScalarField;
    location    "0.75";
    object      p;
}
// * * * * * * * * * * * * * * * * * * * * * * * * * * * * * * * * * * * * * //

dimensions      [0 2 -2 0 0 0 0];

internalField   nonuniform List<scalar> 
382612
(
0.00227564
0.00225625
0.00218898
0.00220502
0.00214344
0.00255991
0.00230573
0.00207309
0.00200311
0.00180263
0.00191889
0.00192084
0.0018084
0.00214015
0.0020865
0.00234968
0.00231887
0.00242129
0.00225246
0.00232673
0.00238136
0.0024487
0.00251682
0.00263888
0.00260077
0.00255515
0.00251578
0.00321829
0.00329375
0.00335483
0.00340455
0.00321847
0.00319666
0.00317093
0.00313662
0.00299685
0.0024837
0.00240456
0.00254865
0.00262481
0.00269678
0.00276422
0.00275004
0.00271625
0.0026748
0.00262883
0.00253696
0.00255897
0.00259412
0.00262447
0.00276039
0.00270315
0.00264326
0.00258215
0.00245173
0.00247157
0.00240497
0.00229753
0.00244748
0.00246399
0.00249729
0.00262224
0.00263521
0.00283951
0.00244291
0.00235491
0.00285394
0.00300427
0.00309016
0.00334176
0.00338069
0.00339281
0.00340084
0.00375776
0.0037427
0.00372231
0.00368433
0.00351792
0.00312937
0.00330592
0.00337531
0.00342073
0.00345265
0.00383466
0.00383843
0.00383767
0.00378739
0.00348072
0.00263506
0.00288593
0.00294966
0.00298104
0.00300174
0.00315729
0.00316769
0.0031779
0.00314925
0.00294566
0.00247887
0.00236238
0.00247591
0.00252511
0.00257753
0.00263724
0.00252719
0.0025077
0.00248738
0.00248151
0.00236236
0.00240121
0.00244005
0.00247132
0.00272074
0.00265526
0.00259069
0.00252915
0.00238346
0.00223429
0.00215691
0.00220454
0.00224182
0.00226974
0.00242479
0.00235659
0.00229258
0.00222982
0.00208534
0.00196639
0.00209581
0.00234874
0.00239894
0.00242364
0.00243705
0.00261612
0.00261846
0.00261959
0.00260914
0.00266586
0.00263284
0.00258811
0.00257686
0.00256344
0.00255173
0.00210903
0.00209074
0.00206805
0.00204119
0.00219326
0.0022413
0.00227965
0.00231261
0.00234085
0.00230215
0.00226649
0.00223867
0.00225706
0.00223744
0.00216113
0.00216048
0.0021773
0.00219423
0.00204274
0.00211966
0.00220366
0.00203271
0.0020347
0.00202098
0.00235231
0.00248146
0.00179083
0.00193038
0.00228842
0.0019888
0.00207099
0.00211326
0.00210834
0.00211436
0.00212338
0.00212754
0.00269701
0.0027102
0.00272982
0.00273955
0.00265121
0.00199959
0.00200966
0.00201584
0.00202622
0.00203522
0.00252926
0.00254959
0.00257944
0.00260355
0.00257643
0.00223653
0.00231376
0.00237362
0.00238477
0.0023883
0.0023942
0.00216913
0.00216864
0.00217166
0.00218558
0.00168696
0.0016992
0.00171547
0.00172434
0.00218655
0.00217187
0.00215399
0.00213824
0.00215034
0.00169007
0.00162781
0.0020956
0.00198765
0.00161544
0.00188981
0.00207353
0.00183537
0.0020408
0.00197898
0.00180861
0.00155818
0.00184995
0.00183727
0.00155194
0.0014582
0.00178719
0.00178649
0.00144086
0.00168791
0.00188865
0.00184858
0.00165535
0.00175325
0.00190829
0.001988
0.0020094
0.00229988
0.00216471
0.00229093
0.00245013
0.00225132
0.00209505
0.00218771
0.00221836
0.00225889
0.00230377
0.00263125
0.00261368
0.00258657
0.00252613
0.00296418
0.00295897
0.0029487
0.00293583
0.00358313
0.00356573
0.00354652
0.00349969
0.00328161
0.00296495
0.00288603
0.00297314
0.00301469
0.0030337
0.00305069
0.00262368
0.00261873
0.00260258
0.00257528
0.00258231
0.00314035
0.00314384
0.00317073
0.00319358
0.00320991
0.00323523
0.0032159
0.00318711
0.00316218
0.00315814
0.00349424
0.0035101
0.00351612
0.00353277
0.00354693
0.00375829
0.00375496
0.00374891
0.0037284
0.00360632
0.00350465
0.00368328
0.00373145
0.0037566
0.00377241
0.00430896
0.00431092
0.00431201
0.00427011
0.00396404
0.00312
0.00322995
0.00326011
0.00328774
0.00331115
0.00321094
0.00319629
0.0031757
0.00313103
0.00292078
0.00260748
0.00275537
0.00281067
0.00284843
0.00287346
0.00331014
0.00332782
0.00335255
0.00334676
0.00315432
0.00210965
0.00218269
0.00220584
0.00223596
0.00226277
0.00266038
0.00273796
0.00276039
0.00277449
0.00278426
0.0024496
0.00242526
0.00239354
0.00236207
0.0022673
0.00286091
0.00295028
0.00294085
0.00291081
0.00288693
0.00209968
0.00208417
0.00206332
0.00204572
0.0020026
0.00265003
0.00263905
0.00260914
0.00257627
0.00255323
0.00192333
0.0019206
0.00191781
0.00192909
0.00199726
0.00203333
0.00201097
0.00201511
0.00202892
0.00204041
0.00238043
0.00240199
0.00243179
0.00246545
0.00252189
0.00199923
0.0019036
0.00189177
0.00189812
0.00190351
0.00234075
0.00235559
0.00237627
0.00239371
0.00238113
0.0021121
0.00213954
0.0021681
0.00217754
0.00218069
0.00218455
0.00206033
0.00205735
0.0020555
0.00206372
0.00180508
0.00180701
0.00181484
0.0018198
0.00207358
0.00206794
0.00206058
0.00205204
0.00204278
0.00181634
0.00206668
0.00202835
0.00202574
0.0020302
0.00203239
0.00195788
0.00208207
0.0022596
0.00220903
0.0021893
0.00217661
0.00216737
0.00201752
0.00201764
0.00201773
0.00201931
0.00211087
0.00211062
0.00210917
0.00210989
0.00210937
0.00210821
0.00210831
0.00210737
0.00203684
0.00203828
0.00204312
0.00204574
0.0022364
0.00224401
0.00225191
0.00225932
0.00230047
0.00206677
0.00210454
0.00211649
0.00211687
0.00181947
0.00195804
0.00198293
0.00183209
0.00179795
0.00199229
0.0019668
0.00169864
0.00221684
0.00218921
0.00210671
0.00209147
0.00202541
0.0021024
0.0018841
0.00190247
0.00204778
0.0022559
0.00233305
0.0022714
0.00225768
0.00225428
0.00225339
0.00220908
0.00220476
0.00219889
0.0021998
0.00224399
0.00243816
0.00241709
0.0024046
0.0023994
0.00239878
0.00234249
0.00234553
0.00235182
0.00236559
0.00241606
0.00219947
0.00212265
0.0021202
0.00211904
0.00211617
0.00211502
0.00216828
0.0021632
0.00215793
0.00216003
0.00199022
0.00199322
0.0019978
0.00200036
0.0020407
0.00204148
0.00204281
0.00204423
0.00205259
0.00199097
0.00221284
0.00217485
0.00217176
0.00217002
0.00216691
0.00217776
0.00226425
0.00227205
0.00222659
0.00222609
0.00223268
0.00223726
0.00241173
0.00241053
0.00240834
0.00240782
0.00243024
0.00250895
0.00250828
0.00250318
0.00249919
0.00249708
0.00236489
0.00236439
0.00236484
0.00237284
0.00242231
0.00236987
0.00234098
0.00233767
0.00233447
0.00233191
0.00213755
0.00213333
0.00212873
0.00213091
0.00211344
0.00210905
0.00210289
0.00209862
0.00209316
0.00209722
0.00210214
0.00210618
0.00213775
0.00213271
0.00213257
0.00213194
0.00235164
0.00234509
0.00233598
0.00232916
0.00235716
0.00217634
0.00211621
0.00213119
0.0022146
0.00207306
0.00205972
0.00211409
0.00210549
0.00188292
0.00200064
0.00203422
0.0019282
0.00230088
0.00219039
0.0021429
0.00223499
0.00215949
0.00211694
0.00227598
0.00231097
0.00243979
0.00241557
0.00242021
0.00236774
0.00236063
0.00236482
0.00236916
0.00248104
0.00247568
0.00246926
0.00246798
0.0024967
0.00254003
0.00253137
0.00252772
0.00252553
0.00252348
0.00240955
0.00241139
0.0024125
0.00241397
0.0024445
0.0025147
0.0024872
0.00248413
0.00248133
0.00247856
0.00243226
0.00242444
0.00241332
0.00240129
0.0024083
0.00225319
0.00221658
0.00220629
0.00219784
0.00219006
0.00230652
0.00229804
0.00228718
0.00227648
0.0022856
0.00217526
0.0021054
0.00210103
0.00210284
0.00210173
0.00210002
0.00211752
0.00211565
0.00211358
0.00212117
0.00218473
0.00218235
0.00218382
0.0021855
0.00210542
0.00210671
0.00210854
0.00210983
0.00211493
0.00221212
0.00221327
0.00213325
0.0021321
0.00217584
0.00203536
0.00205175
0.00215039
0.00220898
0.00226128
0.0021458
0.00207085
0.00209698
0.00190319
0.00195713
0.0021303
0.00228252
0.00217113
0.00209731
0.00217412
0.0022508
0.00239827
0.00249027
0.00255349
0.00254771
0.00250297
0.00248947
0.00249179
0.00249624
0.00249979
0.00261493
0.00261913
0.00262571
0.0026341
0.0026395
0.00274231
0.00273927
0.00273332
0.00272771
0.00272359
0.00252139
0.00251486
0.00250736
0.00250698
0.00255212
0.0026245
0.00263922
0.00264292
0.00264162
0.00263957
0.00267535
0.00267518
0.00267548
0.00267541
0.0026731
0.00257318
0.00253583
0.00253706
0.0025454
0.00255174
0.00266425
0.00266692
0.00266912
0.00266451
0.00264695
0.00248276
0.00247763
0.00248039
0.00248304
0.00248423
0.00225536
0.0022532
0.00224994
0.00224512
0.00224109
0.00215295
0.00211322
0.00211885
0.00212027
0.00211772
0.00211388
0.00215233
0.00215083
0.00214846
0.00214694
0.0021996
0.00220022
0.00220354
0.00220932
0.0021254
0.00212458
0.00212113
0.002114
0.00210174
0.0021945
0.00230006
0.0023254
0.0023343
0.00234129
0.00234692
0.00237559
0.00236894
0.00236397
0.00235933
0.00232786
0.00218538
0.00210387
0.00212258
0.00212782
0.00213096
0.00213495
0.00223262
0.00222063
0.00220719
0.00219785
0.00222873
0.00224441
0.00225445
0.00226056
0.00218625
0.00217732
0.00216809
0.00215191
0.00209064
0.00219038
0.00235177
0.00217666
0.00202806
0.00205929
0.00239369
0.00219305
0.0020741
0.00216364
0.00231997
0.00215626
0.002063
0.00212256
0.00217129
0.00203933
0.00205289
0.0021879
0.00239615
0.00217489
0.00203156
0.00209325
0.00191532
0.00196115
0.00187264
0.00178038
0.00163932
0.00181871
0.00183566
0.00166386
0.0018166
0.00192057
0.00195717
0.0018765
0.00190754
0.00198452
0.00198172
0.00187231
0.00209646
0.00221176
0.00236041
0.00240473
0.00246753
0.00241209
0.00239734
0.00239206
0.00239002
0.00242994
0.00243283
0.00243919
0.00245166
0.00246635
0.00254885
0.00253994
0.00252973
0.0025232
0.00251906
0.00242251
0.00242078
0.00241854
0.00241761
0.0024272
0.00252588
0.0024995
0.00248834
0.00248297
0.00248037
0.00259331
0.00259589
0.00259914
0.00260438
0.00261488
0.00272504
0.00272277
0.00272247
0.0027236
0.00272313
0.00261554
0.00261114
0.00260297
0.00259607
0.00260392
0.00273886
0.00274818
0.00276028
0.00277
0.0027765
0.00285525
0.00285641
0.00285803
0.00285639
0.00283943
0.00279295
0.00280762
0.0028108
0.00280996
0.00280828
0.00295422
0.00295312
0.00295005
0.00294092
0.00291559
0.00288931
0.00294563
0.00296111
0.0029646
0.00296522
0.00263995
0.00263038
0.00261839
0.00261127
0.00261671
0.0026279
0.00266878
0.00268061
0.00268193
0.00268087
0.0025036
0.00250742
0.00250863
0.00250498
0.00248731
0.00270638
0.002779
0.0027961
0.00279342
0.00278677
0.00229711
0.00228334
0.00226807
0.00225729
0.00223391
0.00225874
0.00227556
0.00228992
0.00231697
0.00229863
0.00227888
0.00225472
0.00218691
0.00231811
0.0023593
0.00237554
0.00239476
0.00241117
0.00262025
0.00261834
0.00261109
0.00259643
0.00254925
0.00262452
0.00275908
0.00278625
0.00279868
0.00281052
0.00248673
0.00246026
0.00243223
0.00241121
0.00225813
0.00228485
0.00231174
0.00233868
0.00240931
0.00237631
0.00234096
0.00229708
0.00240059
0.00243559
0.00246525
0.00249024
0.00300344
0.00300442
0.0030011
0.0029658
0.00281132
0.00229656
0.00218196
0.00230274
0.00246405
0.00259934
0.00231833
0.00212695
0.00233271
0.0022556
0.00214681
0.00213316
0.00227893
0.00226667
0.00209646
0.00226319
0.00259491
0.0023215
0.0021246
0.00206438
0.00215786
0.0018428
0.00187843
0.00181492
0.00169292
0.00162307
0.0017916
0.00181654
0.00170003
0.00191254
0.00192569
0.00202316
0.00211786
0.00229184
0.00229328
0.00240873
0.00248323
0.00254362
0.00256881
0.00255866
0.00251464
0.00242543
0.00226638
0.00213321
0.00216505
0.00218277
0.00219199
0.00219616
0.00257417
0.00257131
0.00257133
0.00258047
0.00259007
0.00246609
0.00246008
0.0024742
0.00248754
0.00249646
0.00272568
0.00272517
0.00272577
0.00272547
0.00270401
0.00274635
0.00282369
0.00283112
0.00282914
0.00282829
0.00270436
0.00269716
0.00268694
0.00267282
0.00262704
0.00284381
0.00287714
0.00288237
0.0028831
0.00288361
0.00304951
0.00304859
0.00304828
0.00304161
0.00297669
0.00285301
0.00290289
0.00292025
0.00293344
0.00294216
0.00306055
0.00305771
0.00305354
0.00304345
0.00299726
0.00287762
0.00290595
0.00292315
0.0029368
0.0029456
0.00317415
0.00317072
0.00316825
0.00316218
0.00310829
0.00310348
0.00312297
0.00312778
0.00313361
0.00313869
0.00303031
0.00301763
0.00300034
0.00298204
0.00294221
0.00296895
0.00304187
0.00305891
0.00305998
0.00305624
0.00264263
0.00262689
0.00260853
0.00260006
0.00262482
0.00280096
0.00283063
0.002839
0.00284844
0.0028563
0.00303353
0.00303365
0.00302959
0.00300732
0.00293312
0.0032367
0.00327033
0.00328212
0.00330011
0.00331542
0.00316092
0.00315061
0.00313729
0.003122
0.00307279
0.00274957
0.00283983
0.00287665
0.00290469
0.00292463
0.00290616
0.00289089
0.00287325
0.00284484
0.00272427
0.00245982
0.00227228
0.00232793
0.00235782
0.00238748
0.00242078
0.00259083
0.00256361
0.00253389
0.00251416
0.00254
0.00256791
0.00260076
0.00262745
0.00253923
0.00250081
0.00246214
0.00241932
0.00233881
0.00249182
0.0024782
0.00232583
0.00220172
0.00236378
0.0024387
0.00222451
0.00220364
0.00237914
0.00211616
0.00205534
0.00218464
0.00236224
0.00240233
0.00218238
0.00210978
0.00229679
0.00247165
0.00223292
0.00227471
0.00250364
0.00242358
0.00221704
0.00202582
0.00205055
0.00195435
0.0019798
0.00214614
0.00222857
0.00261858
0.0028114
0.00284033
0.00284113
0.00278232
0.00270038
0.00258485
0.0024379
0.0022578
0.00207133
0.00183589
0.00165441
0.00157045
0.00163603
0.00164887
0.00164938
0.00164774
0.00200852
0.00200605
0.00200634
0.00201068
0.00198567
0.00212363
0.00217241
0.00219552
0.00220684
0.00221166
0.0025488
0.00254422
0.00254156
0.0025416
0.00250841
0.00263546
0.00265312
0.00265495
0.00265776
0.00266027
0.00268237
0.00267566
0.00266743
0.0026585
0.00261759
0.00285
0.00287555
0.00288105
0.00288728
0.00289276
0.00293509
0.00292641
0.00291581
0.00290359
0.00286197
0.00306742
0.00310326
0.0031158
0.00312655
0.00313453
0.00320023
0.00319056
0.00317555
0.00315363
0.00309915
0.00315947
0.00320984
0.0032287
0.00323966
0.00324593
0.00334503
0.00334291
0.0033379
0.00331811
0.00322589
0.00336228
0.00341797
0.00343802
0.00344885
0.00345661
0.00339744
0.00338998
0.00337746
0.00335362
0.00329603
0.00303226
0.00308798
0.00311505
0.00313897
0.00315691
0.00328712
0.00327889
0.00326955
0.00326128
0.00324287
0.00308443
0.0031832
0.00328605
0.00327301
0.00344675
0.00351928
0.00353181
0.00353601
0.00354075
0.00335767
0.00334578
0.00332787
0.00330607
0.00326858
0.00355053
0.00360328
0.00361262
0.00362093
0.00362929
0.00362398
0.00361737
0.00360935
0.00359421
0.00352219
0.00343968
0.00351923
0.00353801
0.0035515
0.00356213
0.00324986
0.00323071
0.00320607
0.00318141
0.00311919
0.00303721
0.00313772
0.00316815
0.00318293
0.00319183
0.00297347
0.00296551
0.0029529
0.00291996
0.00281483
0.00238445
0.00224757
0.00233534
0.00238118
0.00242087
0.00246158
0.0025481
0.00252404
0.00249191
0.00246004
0.00248403
0.00250272
0.0025285
0.00254909
0.00252751
0.00250512
0.00248
0.00244507
0.00236282
0.00246281
0.00244104
0.00231749
0.00237666
0.00249717
0.00265216
0.00294746
0.00296419
0.00292743
0.00298073
0.00300415
0.00301792
0.00302771
0.00289365
0.0028837
0.00287064
0.00285879
0.00283706
0.002665
0.00273207
0.00274882
0.0027505
0.00275029
0.00259935
0.0025892
0.00257802
0.00256619
0.00254736
0.00236835
0.00217521
0.00218095
0.0021918
0.00220309
0.00221719
0.00239711
0.00238876
0.0023791
0.00237175
0.00242684
0.00243649
0.00244981
0.00246108
0.00236897
0.00235601
0.00234296
0.00232261
0.00227119
0.00239652
0.00229194
0.00221219
0.00216403
0.00229614
0.00231527
0.00215949
0.00211866
0.00226905
0.00234085
0.00213824
0.00218684
0.00240863
0.00202987
0.00204841
0.00205439
0.00211318
0.00240836
0.00224976
0.00223885
0.00244943
0.00242926
0.00219581
0.0020884
0.00219313
0.00191163
0.00194485
0.00174127
0.00137941
0.00147997
0.00175063
0.00182637
0.0015818
0.00193994
0.00192203
0.00173465
0.00152137
0.00132754
0.00170317
0.00166359
0.0012114
0.00103935
0.00163664
0.00166264
0.00121817
0.00120266
0.00165155
0.001706
0.00138098
0.00133334
0.00169484
0.0017053
0.00132663
0.00154309
0.00181069
0.00183551
0.00149933
0.00158308
0.00184533
0.00177293
0.0014455
0.00141495
0.00176583
0.00185594
0.00165684
0.00160686
0.00184935
0.00192018
0.00168521
0.00166962
0.00184472
0.00185198
0.00195614
0.00187793
0.00186668
0.00186763
0.0018672
0.0020173
0.00201583
0.00201384
0.00202118
0.00207837
0.00245848
0.00236639
0.00233783
0.00232067
0.00230964
0.00200442
0.00200071
0.00199805
0.00201348
0.00211745
0.00234363
0.00230829
0.00228438
0.00226859
0.00225932
0.00215087
0.00213988
0.00212715
0.00212667
0.00219007
0.00206103
0.00198416
0.00191512
0.00201483
0.00194519
0.00193351
0.0019338
0.00193331
0.00216752
0.00216889
0.00216966
0.00217378
0.00222038
0.00246291
0.00240423
0.00238177
0.00237203
0.00236747
0.00216683
0.00216331
0.00216018
0.00217112
0.00224726
0.00241533
0.00239736
0.00238089
0.00237043
0.00236434
0.00222386
0.00222008
0.00221648
0.00222698
0.00231341
0.00223165
0.00221677
0.00219285
0.00225375
0.00227987
0.00221349
0.00220028
0.00220087
0.00220324
0.00236321
0.00236862
0.00237843
0.00239558
0.00241444
0.00246126
0.00243698
0.0024217
0.0024134
0.00240891
0.00230032
0.00229797
0.00229583
0.00230298
0.00234746
0.00237354
0.00232653
0.00232053
0.00232159
0.00232266
0.00233873
0.00245834
0.00244466
0.00246347
0.00237794
0.00239171
0.00233389
0.00232765
0.00233338
0.00233888
0.00254828
0.00255124
0.00255972
0.00257609
0.00259011
0.00263511
0.00261909
0.00260842
0.00260479
0.00260393
0.00243452
0.00242852
0.00241995
0.00241421
0.00243678
0.00260739
0.0025817
0.00256812
0.00256367
0.00256274
0.00219966
0.00219451
0.00218467
0.00216965
0.00214554
0.00219655
0.00221882
0.00221553
0.00221376
0.00221347
0.00206847
0.00206773
0.00206756
0.00207025
0.00205166
0.00183581
0.00187796
0.00187581
0.00187644
0.00188004
0.00180917
0.00181829
0.00183001
0.00182996
0.00176027
0.0013803
0.00136061
0.0013549
0.00135394
0.00135386
0.00131732
0.00131681
0.00131883
0.00132362
0.00133454
0.00152164
0.0015371
0.00154878
0.00155038
0.00154638
0.0018584
0.00185618
0.00185623
0.00186196
0.00185822
0.00208948
0.00209364
0.00209392
0.0020977
0.00210216
0.00239422
0.00239049
0.00238151
0.00236021
0.00229246
0.0026998
0.00277294
0.00277624
0.00276847
0.00276408
0.00265907
0.0026569
0.00264816
0.00262661
0.00258113
0.00293989
0.00298452
0.00298557
0.00298216
0.00298247
0.00332012
0.00331876
0.00331791
0.00330641
0.00322366
0.00311987
0.00317485
0.00319716
0.00321129
0.00321865
0.00331636
0.00330438
0.00329036
0.00328003
0.00327103
0.00345448
0.00352437
0.00353381
0.00353434
0.00353554
0.0035622
0.00355699
0.00355151
0.00354345
0.0034864
0.00333176
0.00340802
0.00343207
0.00344872
0.00346044
0.00345434
0.00344595
0.00343382
0.00341391
0.00334536
0.00326975
0.00333961
0.00336236
0.00337791
0.00338917
0.0034707
0.00346692
0.0034625
0.00345106
0.00339579
0.003143
0.00319787
0.00321072
0.00321776
0.00322192
0.00306768
0.003063
0.00305673
0.00304836
0.00302966
0.00283812
0.00285248
0.00285886
0.00286453
0.0028682
0.00260279
0.00260119
0.0025992
0.00259823
0.00260118
0.00239341
0.00236909
0.00237204
0.00237789
0.00238212
0.0023976
0.00240018
0.00240416
0.0024044
0.00240692
0.00221143
0.00207241
0.0020615
0.00206133
0.00206254
0.00206433
0.00221746
0.00222136
0.0022247
0.00222024
0.00225064
0.00225703
0.00226145
0.00226475
0.00211266
0.00210314
0.00209465
0.00209028
0.00210098
0.00224847
0.00225607
0.00210948
0.00213195
0.00229108
0.00244267
0.00215712
0.00208966
0.00221631
0.00207194
0.00205748
0.00205579
0.00206215
0.00200631
0.00201077
0.00200859
0.00201819
0.00207199
0.00204945
0.00212828
0.00220808
0.00221341
0.0021004
0.0020455
0.00201736
0.00221377
0.00212408
0.00207279
0.00217029
0.00194727
0.00225255
0.00249151
0.0027068
0.00285123
0.00289326
0.00281087
0.00260745
0.00231261
0.00196878
0.00162599
0.00133403
0.00112256
0.00098002
0.00090311
0.00101724
0.000997073
0.000990225
0.000987854
0.000986371
0.00111205
0.00111985
0.00112646
0.00112976
0.00112775
0.00137613
0.00136982
0.00135652
0.00134321
0.0013336
0.00134517
0.00135511
0.0013646
0.00136702
0.00136564
0.00154611
0.00149992
0.00149254
0.00149667
0.0015015
0.0017881
0.00179504
0.00179953
0.00179159
0.00177581
0.00205311
0.00206539
0.00206675
0.00207128
0.0020747
0.00238239
0.0023762
0.00236947
0.00236659
0.00236377
0.00245455
0.00249192
0.00249075
0.00248459
0.00247968
0.00249869
0.00250293
0.00250316
0.00249021
0.00245662
0.00266915
0.00266768
0.00267285
0.00268663
0.00269842
0.00302151
0.00301486
0.00300806
0.0029993
0.00296163
0.0030622
0.00311398
0.0031208
0.00311951
0.00311887
0.00306248
0.00305931
0.00305234
0.00303871
0.00301714
0.00316401
0.00317961
0.00318613
0.00319859
0.0032101
0.00336111
0.00335264
0.00334068
0.00332532
0.00327574
0.0033212
0.00337162
0.00337901
0.0033785
0.00337715
0.0033559
0.00335408
0.00335145
0.00334721
0.00330871
0.00315165
0.00316028
0.00316761
0.00317653
0.00318332
0.00321062
0.0032033
0.00319474
0.0031871
0.00316831
0.00320991
0.00322712
0.00322708
0.0032248
0.00322348
0.00302335
0.00302456
0.00302584
0.00302616
0.00302906
0.0028221
0.00281776
0.00281746
0.00281859
0.00281977
0.00263856
0.00263759
0.0026373
0.00263577
0.00262347
0.00232903
0.00233478
0.0023434
0.00235239
0.0023586
0.00239285
0.00238716
0.00237969
0.00237009
0.0023484
0.00236049
0.00235045
0.00234538
0.0023397
0.0023355
0.00213382
0.00214239
0.00215006
0.00214759
0.00201775
0.00201758
0.00201884
0.00202013
0.00200554
0.00200547
0.00200456
0.00200525
0.0020906
0.00209119
0.00208326
0.00207465
0.00236357
0.00236834
0.00237568
0.00237848
0.00236878
0.00208926
0.00202974
0.00209484
0.00214685
0.00208158
0.0020574
0.00204435
0.00202019
0.00197054
0.00203306
0.00203315
0.00203062
0.00202451
0.00202002
0.0019574
0.00195657
0.00195404
0.00195315
0.00208753
0.00208605
0.0020762
0.00206889
0.00194264
0.00194283
0.00194138
0.00193626
0.00194665
0.00216922
0.00208553
0.00207007
0.0020594
0.00205249
0.00204305
0.00204564
0.00205007
0.00205975
0.0021867
0.00194238
0.00199069
0.00196445
0.0019611
0.00195983
0.00195706
0.00196952
0.00197774
0.00198649
0.00198584
0.00198912
0.00199671
0.00199513
0.0019938
0.00197208
0.00197477
0.00197742
0.00197822
0.00197287
0.00192152
0.00193728
0.0020095
0.00203272
0.00204546
0.00193319
0.00197209
0.00196486
0.00190722
0.00212061
0.00202134
0.00200111
0.00206461
0.00207247
0.00200839
0.00205096
0.00208732
0.00199148
0.00205501
0.0021392
0.0021839
0.0022699
0.00235354
0.00243191
0.00247808
0.0024593
0.0023379
0.00213527
0.00189273
0.00160596
0.00135988
0.00117304
0.00102571
0.00107867
0.00108226
0.00107777
0.00106904
0.00106159
0.000964481
0.000963568
0.000963028
0.000968824
0.00100947
0.00119456
0.00120951
0.00120592
0.00119346
0.00118081
0.00121307
0.00121329
0.0012141
0.00121846
0.00123706
0.00147043
0.00142843
0.00141972
0.00141777
0.00141707
0.00170441
0.00171419
0.00172194
0.00171799
0.00169707
0.0018715
0.00183172
0.00182766
0.00183609
0.00184481
0.00224422
0.00224255
0.00224078
0.00224163
0.00224189
0.00231487
0.00232476
0.00232188
0.00231735
0.00231531
0.00238872
0.002394
0.00239618
0.00238792
0.00236943
0.00258242
0.00255848
0.00256019
0.00257224
0.00258416
0.00288695
0.00288339
0.00287819
0.00287591
0.00288081
0.00289242
0.00290633
0.00291022
0.00290918
0.00290778
0.00288966
0.00288956
0.00288734
0.00288153
0.00288608
0.00305223
0.00303142
0.0030296
0.00303822
0.00304775
0.00315786
0.00315066
0.00314363
0.00314493
0.0031536
0.00320358
0.00319011
0.00319051
0.00319805
0.00320509
0.00311491
0.00311902
0.00312262
0.00312148
0.00311796
0.00304369
0.00303876
0.00304067
0.0030392
0.00303708
0.00292234
0.00292335
0.002924
0.00292443
0.00293484
0.00276657
0.00276162
0.002761
0.00276073
0.00276114
0.00259894
0.00259947
0.00260141
0.00260344
0.0025958
0.00252958
0.00253681
0.00253534
0.00253291
0.00253189
0.00231202
0.00230673
0.00229871
0.00228911
0.00228005
0.00220177
0.00218969
0.00219166
0.00219699
0.002201
0.00224917
0.0022576
0.00226976
0.00228122
0.00229021
0.00206043
0.00207702
0.00207371
0.00206514
0.0020565
0.00202526
0.00202665
0.00202652
0.00202627
0.00204765
0.00204536
0.0020199
0.00201287
0.00200829
0.00200551
0.00204218
0.00191829
0.00216862
0.002167
0.00189173
0.00229156
0.00200971
0.00192431
0.00241881
0.00206334
0.00191214
0.00254388
0.00192887
0.00225073
0.00204694
0.00247022
0.00215549
0.00223825
0.00219113
0.00216624
0.00208285
0.00204133
0.00199597
0.00194536
0.00185632
0.00172115
0.00151783
0.00132139
0.00115955
0.00104024
0.000939518
0.000944598
0.000925831
0.000919419
0.000914151
0.000909935
0.000926266
0.000938556
0.000951509
0.00096014
0.000968108
0.00115157
0.00110337
0.00108707
0.0010854
0.00108768
0.00131232
0.00131667
0.00132551
0.00134495
0.00139192
0.00150447
0.00150091
0.00150009
0.00148987
0.00147832
0.00175648
0.00174904
0.0017451
0.00176215
0.00182858
0.00214322
0.00209588
0.00208189
0.0020802
0.00208146
0.00221916
0.00222695
0.00223274
0.00223081
0.00223832
0.00254275
0.00249424
0.00248617
0.0024953
0.00250587
0.0027676
0.00276379
0.00276224
0.00277163
0.00281207
0.00264365
0.00262011
0.00261747
0.00261648
0.00261548
0.00279498
0.00279534
0.0027968
0.00279905
0.00281022
0.00290442
0.00289126
0.00288817
0.00288668
0.00288603
0.00293707
0.002938
0.00294136
0.00294358
0.00294561
0.00289662
0.00288926
0.00288774
0.00288502
0.00288437
0.00283466
0.00284006
0.00284746
0.00285247
0.00285676
0.00267557
0.00266349
0.00266111
0.00266082
0.002662
0.00249742
0.00249789
0.00249946
0.00250486
0.0025272
0.0024458
0.00245763
0.00245911
0.00246027
0.00246165
0.00237402
0.00237535
0.00237786
0.00238081
0.00237267
0.00217961
0.0021492
0.00214467
0.00214801
0.00215124
0.00225768
0.00227017
0.00228729
0.00229861
0.00227901
0.00215129
0.00208934
0.00208496
0.00209117
0.00209609
0.00205206
0.00205021
0.00204643
0.00204806
0.00208883
0.00197578
0.00193065
0.00192233
0.0019205
0.00191872
0.00199596
0.00200522
0.00201828
0.00203038
0.00204001
0.00188285
0.00192783
0.00192115
0.00190782
0.00189692
0.00193968
0.00195014
0.00196664
0.00197879
0.00193331
0.00183956
0.00182847
0.00182971
0.00182931
0.00182778
0.00198566
0.00199326
0.00200078
0.00200158
0.0019866
0.00198937
0.00192081
0.00186908
0.00200168
0.00200142
0.00187495
0.00188516
0.0018841
0.00187928
0.00187432
0.00196182
0.0019679
0.00197373
0.00198002
0.0020105
0.00192811
0.0018788
0.00196712
0.00193961
0.00184794
0.00195491
0.00197324
0.00197908
0.00195014
0.00201542
0.00201509
0.00198479
0.00202766
0.00225132
0.00209042
0.00204511
0.00220328
0.00218636
0.0020356
0.00200251
0.00200251
0.0020673
0.00203571
0.00207511
0.00215989
0.0021229
0.00207673
0.00205843
0.00208096
0.00154398
0.00182473
0.0018251
0.00146497
0.00160721
0.0018733
0.00197887
0.0019095
0.00219652
0.00206072
0.00187577
0.00184951
0.00161906
0.00185031
0.00177594
0.00143283
0.00143824
0.00178033
0.00169924
0.0011414
0.00108017
0.00165482
0.00160618
0.000976052
0.00109129
0.00165983
0.00163795
0.00112316
0.000911129
0.00155473
0.00162415
0.0010006
0.00110292
0.00165517
0.00164707
0.00100437
0.00135284
0.00176646
0.00180701
0.00146031
0.00178228
0.0018948
0.00194104
0.00194054
0.00236971
0.00211244
0.0019086
0.00177896
0.00184134
0.00155656
0.00109167
0.00060727
0.000274554
0.000225457
0.00055138
0.000984394
0.00164229
0.00204842
0.00232909
0.00251836
0.00255217
0.00256694
0.0025768
0.00285383
0.00286617
0.00287976
0.002889
0.00287277
0.00233221
0.00241159
0.00242055
0.00241753
0.00241181
0.00288301
0.00290361
0.00292892
0.00293664
0.00287921
0.00230722
0.00231746
0.00231634
0.00231603
0.00231448
0.00289689
0.00292078
0.00295479
0.00297998
0.00291269
0.00280868
0.00295389
0.0029706
0.00296137
0.00295017
0.0022365
0.00224084
0.00224099
0.00222719
0.002142
0.00183433
0.00196546
0.00197375
0.0019723
0.00197044
0.00241122
0.0024217
0.00243399
0.00244633
0.00248888
0.001924
0.00190668
0.0019052
0.00190523
0.0019021
0.00187596
0.00187762
0.0018796
0.00188308
0.00187418
0.00241649
0.00232576
0.00229579
0.00227935
0.00226814
0.00227666
0.00229136
0.00231543
0.00234816
0.00236734
0.00238175
0.00228364
0.00225861
0.00224811
0.00224199
0.00226999
0.00227911
0.00229568
0.00232289
0.00237023
0.00226208
0.00218636
0.00217405
0.0021765
0.00217982
0.00208686
0.00203121
0.00202189
0.00202155
0.00202071
0.00214249
0.00214179
0.00214011
0.00214382
0.00218141
0.00243123
0.00240144
0.00237971
0.00236634
0.00235921
0.00235124
0.00235373
0.00236004
0.00238279
0.00247019
0.00233461
0.00231723
0.00231676
0.00231824
0.00231911
0.00233751
0.0023371
0.00233429
0.00233097
0.00234426
0.00232627
0.00227615
0.00228705
0.00219078
0.00218102
0.00215664
0.00215926
0.00216548
0.00216966
0.00242775
0.00243297
0.00244208
0.00245963
0.0024771
0.0025778
0.00254689
0.00252727
0.00251819
0.00251461
0.00222477
0.00222101
0.00221434
0.00220493
0.00219176
0.00229028
0.00228901
0.00228105
0.00227612
0.00227343
0.00225072
0.00225426
0.00226424
0.00228128
0.00226841
0.00203037
0.00206841
0.00206186
0.00205841
0.00205983
0.00162983
0.0016267
0.0016165
0.00159321
0.0015377
0.00144273
0.0014914
0.00151146
0.00152127
0.00152412
0.00138405
0.00138688
0.00139234
0.00139859
0.00137733
0.00125986
0.00127689
0.00127233
0.00126741
0.00126509
0.0011716
0.00118267
0.00119703
0.00120896
0.00120599
0.00100403
0.0010239
0.00103022
0.00103029
0.00102738
0.000945003
0.000946154
0.000947948
0.000950983
0.000952738
0.000937818
0.000920449
0.00091223
0.000907755
0.000905304
0.00091956
0.000922501
0.000927817
0.000935951
0.000948117
0.000995956
0.000995559
0.00099024
0.000981147
0.0009727
0.000998457
0.0010012
0.00100534
0.00101306
0.00103412
0.00119412
0.00115893
0.00114946
0.00114785
0.00114721
0.00108795
0.000975633
0.00107787
0.00105156
0.0010393
0.00103278
0.0010293
0.000966048
0.000921411
0.000927574
0.000939534
0.000939717
0.00093564
0.000931301
0.00089078
0.000890377
0.000890572
0.000895034
0.000921528
0.000955606
0.000922713
0.00091513
0.000913703
0.000913873
0.000955224
0.000954106
0.000952788
0.000954118
0.000976065
0.000942993
0.000928004
0.000927512
0.000929607
0.00093097
0.000969659
0.000969859
0.000971574
0.000980243
0.0010099
0.00119258
0.00120035
0.00119458
0.00118145
0.00116974
0.0011656
0.00116042
0.00115561
0.00116015
0.00119956
0.00145892
0.00143265
0.00142326
0.00142002
0.00141873
0.00168887
0.00169846
0.00170645
0.00170045
0.00166985
0.00183332
0.00178314
0.0017782
0.00178802
0.0017964
0.0021914
0.00218883
0.00218788
0.00218897