/*--------------------------------*- C++ -*----------------------------------*\
  =========                 |
  \\      /  F ield         | OpenFOAM: The Open Source CFD Toolbox
   \\    /   O peration     | Website:  https://openfoam.org
    \\  /    A nd           | Version:  7
     \\/     M anipulation  |
\*---------------------------------------------------------------------------*/
FoamFile
{
    version     2.0;
    format      ascii;
    class       volVectorField;
    location    "0.75";
    object      wallShearStress;
}
// * * * * * * * * * * * * * * * * * * * * * * * * * * * * * * * * * * * * * //

dimensions      [0 2 -2 0 0 0 0];

internalField   uniform (0 0 0);

boundaryField
{
    outlet1
    {
        type            calculated;
        value           uniform (0 0 0);
    }
    Wall
    {
        type            calculated;
        value           nonuniform List<vector> 
40276
(
(0.000145733 6.73829e-05 0.000274842)
(-0.000196598 -1.18495e-05 0.000433137)
(-0.000200638 -1.04849e-05 0.000425374)
(0.000204654 -0.000191145 0.00018018)
(0.000162483 -0.00012973 0.000170384)
(0.000120993 -8.29633e-05 0.000174796)
(0.000107584 -3.98238e-05 0.000181163)
(0.000136738 -1.79633e-05 0.000206819)
(0.000112606 -8.38146e-07 0.000196248)
(0.000115488 -1.40172e-05 0.000209644)
(0.000519554 3.48398e-05 0.000431759)
(0.000602486 -4.31292e-06 0.000467039)
(0.000576875 1.05246e-05 0.000924887)
(0.000556584 1.35318e-05 0.000859396)
(0.000219863 3.82436e-05 0.00027217)
(0.000216204 5.09717e-05 0.000305062)
(0.000155413 5.89851e-05 0.00020983)
(0.000164213 4.12456e-05 0.00014719)
(7.39483e-05 -0.000199643 0.000124615)
(9.63998e-05 -0.000262255 0.000163805)
(-5.04383e-05 1.39752e-05 0.000159325)
(-7.21059e-05 1.70905e-05 0.00015271)
(-6.894e-05 1.92432e-05 5.20761e-05)
(-8.28507e-05 1.82728e-05 4.85686e-05)
(-6.55423e-05 1.56528e-05 3.42308e-05)
(-7.65296e-05 1.69315e-05 2.90371e-05)
(4.79213e-05 -4.73908e-06 -2.70951e-05)
(3.09452e-05 6.93678e-06 -3.14039e-05)
(-0.000118015 3.79519e-05 8.18194e-05)
(-7.21502e-05 2.16538e-05 7.12809e-05)
(-0.000222351 7.24876e-05 0.000145245)
(-0.000267348 9.23204e-05 0.000153303)
(-5.28407e-05 -3.41332e-06 0.000160487)
(-4.70709e-05 -5.14022e-06 0.000149186)
(-1.03314e-05 1.00448e-05 1.21812e-06)
(-9.48352e-06 1.0214e-05 1.30807e-06)
(0.000536845 2.72334e-05 1.34148e-05)
(0.000536717 -3.74527e-06 -7.09895e-06)
(0.00118113 0.000261118 -3.58013e-05)
(0.00146659 0.000395196 -6.7579e-05)
(0.000773839 2.55547e-05 5.57706e-06)
(0.000650382 1.21661e-06 3.67868e-05)
(0.000218156 -2.43079e-05 -0.000626965)
(0.00022606 -2.5295e-05 -0.00062887)
(0.000198265 5.54804e-06 -0.000617126)
(0.00016041 -1.3864e-05 -0.00057018)
(0.00011528 7.84166e-06 -0.000580431)
(0.00010416 -7.63182e-06 -0.000514454)
(5.21289e-05 -1.46884e-06 -0.000482797)
(2.03372e-05 3.14197e-06 -0.000436052)
(1.42184e-05 -8.84183e-06 -0.000392584)
(-1.30575e-05 4.66031e-06 -0.000405606)
(-2.23247e-05 -5.19846e-06 -0.000354655)
(-3.77228e-05 7.46888e-06 -0.000354372)
(0.000505681 7.90597e-05 0.000234621)
(0.000507304 9.14337e-05 0.00018712)
(-0.000166706 6.29915e-05 0.000221533)
(6.12508e-05 1.9744e-05 0.000183014)
(-0.000182084 6.49365e-05 0.000223128)
(-0.000531074 0.000151621 -0.000502219)
(-0.000585054 0.000106213 -0.000537295)
(1.81992e-05 3.20064e-05 0.00028093)
(-1.26105e-05 -1.25819e-05 0.000218409)
(6.20222e-06 6.96578e-08 6.72326e-06)
(1.24034e-05 -2.82344e-07 1.15592e-05)
(1.19544e-05 1.6454e-08 1.07154e-05)
(1.01617e-05 9.0097e-08 9.92785e-06)
(5.73021e-06 8.43406e-08 6.22535e-06)
(-0.000171717 -7.70198e-06 -0.000157469)
(-0.000184861 5.31264e-06 -0.000166777)
(-5.37976e-05 9.4619e-06 -0.000317623)
(-3.88434e-05 -5.51669e-06 -0.000329556)
(-6.53576e-05 4.88517e-06 -6.42037e-05)
(-6.57805e-05 4.89833e-06 -6.05793e-05)
(-5.77449e-05 4.27827e-06 -5.47866e-05)
(-5.73877e-05 6.12965e-06 -5.29049e-05)
(-6.40705e-05 3.0895e-06 -5.74372e-05)
(2.30318e-06 1.01406e-06 -2.1489e-05)
(-7.09585e-07 6.23301e-07 -2.50775e-05)
(1.16553e-05 3.02148e-06 -1.40348e-06)
(1.33214e-05 8.25528e-07 -8.82804e-07)
(1.54305e-05 1.03917e-06 -1.07698e-06)
(1.34252e-05 -4.59997e-06 9.27802e-06)
(1.36331e-05 -6.5485e-06 1.01813e-05)
(2.00271e-05 -3.42501e-05 1.29835e-05)
(1.44529e-05 -5.50902e-08 1.26505e-05)
(1.29172e-05 -1.04637e-07 1.1407e-05)
(1.48984e-05 -2.32148e-07 1.29562e-05)
(1.78713e-05 -3.67109e-05 1.21117e-05)
(6.17969e-06 -4.76917e-05 6.7794e-06)
(3.94788e-06 -4.66216e-05 5.78011e-06)
(-4.70826e-05 -8.1998e-07 -4.29848e-05)
(1.36381e-05 -1.33386e-07 1.17322e-05)
(1.38764e-05 -2.58646e-07 1.26602e-05)
(1.30313e-05 -1.86668e-07 1.15639e-05)
(1.12255e-05 -6.2089e-08 1.08555e-05)
(8.99867e-06 -9.19513e-08 1.02333e-05)
(6.67856e-06 -1.01678e-07 9.76694e-06)
(1.54555e-06 1.49464e-07 7.34618e-06)
(-5.29263e-07 8.25922e-08 6.76364e-06)
(-2.48477e-06 -2.84457e-08 6.19548e-06)
(-8.23826e-06 2.35522e-07 1.99328e-06)
(-9.11616e-06 9.41435e-08 1.09575e-06)
(-5.19157e-05 4.2907e-06 -4.58705e-05)
(-9.87453e-06 5.81747e-08 1.08146e-07)
(-9.63312e-06 -4.84986e-06 -1.18053e-05)
(-7.80993e-06 -4.91191e-06 -9.20195e-06)
(-1.01915e-05 -1.09109e-07 -8.60164e-07)
(-1.03754e-05 -1.78131e-07 -1.96515e-06)
(-9.46116e-06 1.90273e-07 -2.67972e-06)
(-1.02369e-05 -2.72009e-07 -3.15017e-06)
(-9.15383e-06 1.0091e-07 -3.93387e-06)
(-9.53876e-06 -4.25831e-07 -4.33683e-06)
(-8.69783e-06 -5.05262e-08 -5.12526e-06)
(-8.36659e-06 -5.76294e-07 -5.31501e-06)
(-4.1482e-06 -1.19801e-06 -1.76387e-05)
(-3.85761e-06 -1.87302e-06 -1.90966e-05)
(-4.60916e-06 -2.09373e-06 -1.81693e-05)
(-0.000308649 -6.65731e-05 0.000514508)
(-0.000313677 -6.51771e-05 0.000464852)
(-2.58571e-05 -2.31795e-06 1.21336e-05)
(-1.90756e-05 -2.23688e-06 1.1268e-05)
(-5.39508e-05 5.07896e-07 -2.64504e-06)
(-5.03393e-05 -1.34134e-06 2.09713e-07)
(-5.32614e-07 -1.82779e-05 -9.12385e-07)
(2.77304e-07 -1.90028e-05 -1.06054e-07)
(-0.000124862 2.67151e-05 0.000180279)
(-0.000107805 3.6209e-05 0.000152633)
(-0.000166498 -2.48727e-05 0.000284983)
(-0.000145196 -3.15767e-05 0.000244868)
(-0.000102498 -1.1417e-05 0.000172036)
(-8.93577e-05 -1.45382e-05 0.000147649)
(-0.000153504 6.86396e-05 0.00045831)
(-0.000206486 0.000150341 0.000631019)
(9.82267e-06 -1.27281e-05 0.000189462)
(9.33583e-07 -5.4672e-06 0.000160195)
(-0.00010069 2.7134e-05 0.000192466)
(-5.44076e-05 1.00245e-06 0.000166938)
(-0.000179692 -7.77372e-05 0.000497231)
(-0.000173163 -6.58818e-05 0.000494268)
(-0.000170764 -6.60585e-05 0.000532116)
(-0.000180574 -4.44166e-05 0.000530814)
(-0.000570501 1.26467e-05 -0.000153397)
(-0.00065645 1.31993e-05 -0.000186747)
(-2.27562e-05 -7.96451e-05 9.9578e-06)
(-2.65486e-05 -7.89095e-05 1.19249e-05)
(-2.18182e-05 -4.42987e-05 6.61122e-05)
(-2.55753e-05 -5.41502e-05 8.25726e-05)
(-2.93257e-05 -5.29632e-05 6.66053e-05)
(-2.34836e-05 -4.07982e-05 5.41946e-05)
(-1.54721e-05 -8.61284e-05 8.48697e-06)
(-1.9899e-05 -9.83349e-05 6.53178e-06)
(-2.35151e-05 -8.34359e-05 8.81725e-06)
(-2.19006e-05 -8.64452e-05 9.21032e-06)
(-2.31355e-05 -0.000128633 -1.56096e-05)
(-1.99739e-05 -0.000111406 -1.41259e-05)
(-7.64458e-06 -5.66156e-05 -3.31734e-06)
(-9.88083e-06 -5.05311e-05 -4.75714e-06)
(-6.06909e-05 -3.07205e-05 9.41026e-05)
(-5.54966e-05 -3.25554e-05 8.89199e-05)
(7.6489e-05 4.0856e-06 -0.000219763)
(8.16003e-05 -3.97042e-06 -0.000202995)
(-0.000143539 -6.3097e-05 -1.31019e-05)
(-0.000142071 -7.02778e-05 -1.53832e-05)
(-0.000313926 -5.01567e-05 0.000145452)
(-0.000336474 -5.45256e-05 0.000135169)
(-0.000302671 -8.22201e-05 -2.68513e-05)
(-0.000295661 -6.84646e-05 -3.64385e-05)
(-0.000167207 0.000205306 0.000227973)
(-0.000159754 0.00025518 0.000210613)
(-0.000263449 -4.64596e-05 1.39222e-05)
(-0.000138546 -4.89745e-05 -1.94906e-05)
(-0.000214954 -7.98991e-05 7.75667e-05)
(-0.000184331 -7.80943e-05 6.52793e-05)
(-0.00024047 -5.3855e-05 6.20614e-05)
(-7.07294e-05 -4.44015e-05 -7.44483e-06)
(-3.91934e-05 -2.09893e-05 6.06373e-05)
(-3.22984e-05 -1.94695e-05 5.59825e-05)
(0.000724289 -0.000355907 0.00039598)
(0.000639445 -0.000306578 0.000294163)
(0.000660521 -0.000439782 0.00017026)
(0.000561534 -0.000308368 0.000181495)
(0.00057707 -0.000369562 0.000152799)
(0.00038601 -0.000349645 0.000153944)
(0.000492562 -0.000392409 0.000187158)
(0.000382322 -0.000319719 0.000158321)
(0.000594162 -0.000345 0.000341521)
(0.000640843 -0.000409906 0.000347438)
(0.000614038 -0.000390251 0.000260092)
(0.000523188 -0.000431999 0.000142896)
(0.000613391 -0.00045074 0.000130028)
(0.000497386 -0.000366804 0.000168507)
(0.000262968 -0.000244033 0.00015598)
(0.000372908 -0.000343299 0.000169237)
(0.000297316 -0.00025485 0.000174887)
(0.000251412 -0.000234768 0.000174836)
(0.000129571 -8.75993e-05 0.000174206)
(2.40782e-05 1.61e-06 0.000430599)
(8.80643e-06 1.11762e-05 0.000374165)
(4.18216e-05 3.43521e-05 0.000299813)
(3.73769e-05 3.61114e-05 0.000266022)
(7.94514e-05 4.75849e-05 0.000271695)
(-3.28816e-06 1.54549e-05 0.000313564)
(9.93077e-06 2.8074e-05 0.00028216)
(0.000240118 4.02782e-05 0.000389814)
(0.000276342 6.13189e-05 0.000438633)
(0.000148778 2.47964e-05 0.00022623)
(0.000188205 2.366e-05 0.000282691)
(0.000149069 3.40148e-07 0.000235135)
(0.000146787 1.53668e-05 0.000232275)
(0.000207769 2.91288e-05 0.000325678)
(0.000208298 3.08632e-05 0.000366416)
(0.000183061 9.17852e-06 0.000330224)
(0.000175609 -6.7841e-06 0.000306757)
(0.000147843 1.90262e-05 0.000240604)
(0.000161073 2.69307e-05 0.000235327)
(0.000149268 -5.19491e-06 0.000236391)
(0.000208 2.58366e-05 0.000328754)
(0.00014174 -1.33477e-06 0.000247737)
(0.000125881 -2.30503e-05 0.000245462)
(0.000193419 -8.2957e-06 0.000539584)
(0.000172949 -9.80461e-06 0.00052927)
(0.000120894 -2.38161e-05 0.00052458)
(3.9887e-05 -3.36847e-05 0.000499704)
(0.000235384 1.00004e-05 0.000503602)
(0.00014193 -4.02054e-05 0.000448979)
(8.07159e-05 -4.25093e-05 0.000402239)
(2.12487e-05 -5.21832e-05 0.000358459)
(3.29887e-05 -7.41869e-05 0.000351242)
(-3.53827e-05 -4.07774e-05 0.000361384)
(-6.46299e-05 -7.06537e-05 0.000329781)
(-3.61322e-05 -1.46237e-05 0.000280351)
(-2.79337e-05 2.22101e-06 0.000233372)
(-6.90012e-05 -4.37592e-05 0.000235611)
(-5.3637e-05 -1.83081e-05 0.000201798)
(0.000181648 3.00059e-06 0.000343984)
(0.000160338 -1.09634e-05 0.000352924)
(0.000128886 -3.41596e-05 0.000322846)
(4.24748e-05 -8.53993e-05 0.000354997)
(0.000127364 -2.89252e-05 0.000291065)
(2.79406e-05 -7.64393e-05 0.00024458)
(-2.98879e-06 -7.31139e-05 0.000274421)
(-5.82838e-05 -7.83443e-05 0.000253825)
(-3.46048e-05 -9.2999e-05 0.000214186)
(-6.29208e-05 -7.88257e-05 0.000159135)
(-5.64317e-05 -9.21417e-05 0.000153545)
(-0.000122435 -9.90341e-05 0.000126689)
(-9.18944e-05 -6.60111e-05 0.000181422)
(-7.22728e-05 -3.5017e-05 0.000135509)
(-7.01626e-05 -5.5404e-05 0.000131898)
(0.000299813 1.71884e-05 0.000523722)
(0.000341032 4.39105e-05 0.000618972)
(0.000299522 -9.92488e-06 0.000532245)
(0.00030169 2.13318e-05 0.000531234)
(0.000505707 0.000146362 0.000460884)
(0.000560018 0.000152896 0.000571575)
(0.000415422 0.000147136 0.000483148)
(0.000455952 0.000137541 0.000570374)
(0.000368409 0.000137401 0.000549045)
(0.000366161 0.000124333 0.000579448)
(0.000507881 0.000209708 0.000643308)
(0.000430615 0.000183145 0.000461281)
(0.000504694 0.000195301 0.000592913)
(0.000329839 0.000133591 0.00049717)
(0.000436968 0.000166316 0.00062542)
(0.000567624 0.000190024 0.000446101)
(0.000465238 0.000184954 0.000505838)
(0.000477015 0.000185811 0.000516059)
(0.000485059 0.000165671 0.000653395)
(0.000530962 0.000219289 0.000595967)
(0.000582861 0.000243414 0.000553238)
(0.000527835 0.000226962 0.000516492)
(0.000521601 0.000192314 0.000623482)
(0.000506143 0.000189582 0.000650171)
(0.000562355 9.06736e-05 0.000547288)
(0.000704454 9.00357e-05 0.00057795)
(0.000552238 0.000121218 0.000545982)
(0.000425577 0.000129306 0.000393225)
(0.000525698 0.000119899 0.000495883)
(0.000534347 8.22275e-05 0.000427782)
(0.000400657 5.45755e-05 0.000287384)
(0.000430595 0.00012234 0.000347461)
(0.000495901 0.000102506 0.000345123)
(0.000455869 0.000102293 0.00031257)
(0.000635508 -6.71655e-05 0.000493079)
(0.000656661 -0.000103363 0.000465029)
(0.000682728 -0.000236302 0.000403525)
(0.000506329 -0.00011322 0.000338864)
(0.000592655 -0.000198814 0.000266545)
(0.000481296 -4.5849e-05 0.000298544)
(0.000629067 -0.000215736 0.000260275)
(0.000392005 -6.31917e-05 0.000201362)
(0.000516105 -0.000166412 0.000156358)
(0.000677612 -0.000340194 0.000150993)
(0.000404529 4.0525e-05 0.000286764)
(0.000415077 7.83844e-05 0.000277834)
(0.000418774 -1.15144e-05 0.00018703)
(0.000414568 4.0897e-05 0.000186513)
(0.000543519 0.00019724 0.000384136)
(0.000521889 0.000194242 0.00051458)
(0.000553921 0.000199183 0.000463203)
(0.00056922 0.000163042 0.000339274)
(0.000646181 0.000217909 0.000370857)
(0.000614807 0.000256655 0.000520707)
(0.000510178 0.000198584 0.00053726)
(0.000559036 0.000204584 0.000566156)
(0.000593852 0.000236858 0.000332956)
(0.000559254 0.000207165 0.000492325)
(0.000549165 0.000212126 0.000507864)
(0.000637657 0.000256373 0.000624468)
(0.00065111 0.000258546 0.000469272)
(0.000488642 0.000126786 0.000274375)
(0.000691309 0.000210905 0.000299658)
(0.000515927 9.63131e-05 0.000235619)
(0.000689122 0.000162675 0.000223805)
(0.000639833 0.000239536 0.000312957)
(0.000631807 0.000207044 0.000374909)
(0.00085521 0.000349959 0.000419875)
(0.000672946 0.000235465 0.000251443)
(0.00063066 0.000188292 0.00026267)
(0.000910236 0.000344174 0.000295424)
(0.000670823 0.00032598 0.000406811)
(0.000708355 0.000271664 0.000535582)
(0.000637515 0.000238716 0.00057653)
(0.000782744 0.000313993 0.000472666)
(0.00080341 0.000318332 0.00042543)
(0.000389341 0.000145672 0.000540135)
(0.000398639 0.000150954 0.00054581)
(0.000275354 7.29173e-05 0.00052493)
(0.000406386 0.000145596 0.000611666)
(0.000469754 0.000130144 0.000710904)
(0.000441973 0.000128927 0.00065824)
(0.000397826 0.000132297 0.000551758)
(0.00042219 0.000145377 0.00058187)
(0.000417009 0.000140497 0.000648105)
(0.000379693 4.56176e-05 0.000699793)
(0.000329401 2.15338e-05 0.000638561)
(0.000391193 9.0117e-05 0.000685016)
(0.000357835 7.78979e-05 0.000630729)
(0.000320979 1.46807e-05 0.000548643)
(0.00043337 0.00014405 0.000588834)
(0.000468481 0.00011305 0.000685151)
(0.000404715 9.34816e-05 0.000637373)
(0.000396467 -3.49858e-05 0.000673221)
(0.000498099 0.000133706 0.000776662)
(0.000378148 4.79818e-05 0.000673738)
(0.000495779 0.000195967 0.000576493)
(0.000552533 0.000214256 0.000628229)
(0.000493694 0.000146611 0.000711611)
(0.000446567 0.000158928 0.000606896)
(0.000522205 0.000195608 0.00061973)
(0.000531142 0.000109213 0.000772202)
(0.000523568 0.000119423 0.000828566)
(0.000414656 1.41162e-05 0.000732585)
(0.000377385 1.07055e-05 0.000641749)
(0.000406088 3.53197e-05 0.000686502)
(0.000469194 9.4753e-05 0.000722152)
(0.000396566 3.97643e-05 0.000646157)
(0.000514351 0.000188066 0.000649537)
(0.000530189 7.42951e-05 0.000810632)
(0.000594644 0.000153949 0.000883267)
(0.000280643 -9.27143e-06 0.000497838)
(0.000294379 3.18628e-05 0.00051871)
(0.000354832 0.000111965 0.000561624)
(0.000367608 6.43502e-05 0.000624443)
(0.000342877 6.65356e-06 0.000570682)
(0.000437095 6.45481e-05 0.000706394)
(0.000328235 -3.62055e-05 0.000557193)
(0.000333277 5.9387e-06 0.000561879)
(0.000421565 0.000114585 0.00066581)
(0.000342469 3.05191e-05 0.000580849)
(0.000295537 2.19209e-05 0.000494234)
(0.000354523 -1.20761e-05 0.000581913)
(0.000304046 2.78581e-05 0.000506726)
(0.000339659 2.63339e-05 0.000558161)
(0.000411055 1.57139e-05 0.000669696)
(0.000315906 7.00128e-05 0.000539802)
(0.000310289 3.72101e-05 0.000515265)
(0.000397403 -7.15552e-05 0.000604427)
(0.000477406 9.37984e-05 0.000765335)
(0.000412672 -5.66004e-05 0.000709181)
(0.000517933 3.34374e-05 0.000851078)
(0.000398519 -2.41687e-05 0.000679144)
(0.00041644 -1.42859e-05 0.000708465)
(0.00053202 0.000121899 0.000786361)
(0.000420961 1.69922e-05 0.000678349)
(0.000479671 -3.88384e-06 0.000769472)
(0.000507062 1.8631e-05 0.000828859)
(0.000505031 2.07643e-07 0.00080492)
(0.000411382 6.6632e-06 0.000656656)
(0.000461811 1.05269e-05 0.000731433)
(0.000408121 -4.32195e-07 0.000642398)
(0.000461748 2.50057e-05 0.000724654)
(0.000577446 0.000187986 0.000721487)
(0.000596551 0.00023069 0.00064228)
(-2.11512e-05 -4.95857e-05 0.000160894)
(0.000579817 0.000148586 0.000813343)
(0.000513242 0.00014422 0.000700171)
(0.000712787 0.000297897 0.00064644)
(0.000617169 0.00025725 0.000606214)
(0.000669962 0.0002552 0.000687907)
(-2.54334e-05 -4.92827e-05 0.000160368)
(0.000592631 0.000196332 0.000754939)
(0.000576569 0.000212381 0.0006801)
(0.000634913 0.000242488 0.000714321)
(0.00058311 0.000166883 0.000819266)
(0.000629464 0.000156257 0.000946995)
(-2.30393e-05 -4.89966e-05 0.000157558)
(0.000469184 4.79152e-05 0.000767144)
(0.000433889 2.75689e-05 0.000737205)
(0.000459702 5.03412e-05 0.000740854)
(0.00053799 2.62668e-05 0.000834927)
(0.000462778 8.26352e-05 0.000730423)
(-2.55228e-05 -3.84829e-05 0.000160611)
(0.000578928 0.000219652 0.000699235)
(0.000612533 0.000100941 0.000888562)
(0.000681311 0.000188573 0.000952275)
(0.000693866 0.000261629 0.000738759)
(0.000815991 0.000328804 0.000600809)
(0.000923163 0.000397308 0.000542368)
(0.000661664 0.00021111 0.000826625)
(0.00064406 0.000221351 0.000720256)
(0.000702172 0.000333425 0.000561237)
(0.000746929 0.000309643 0.000607796)
(0.000706843 0.000262504 0.000726956)
(0.000723591 0.000273753 0.000783281)
(0.000802786 0.00034684 0.000758231)
(0.000693302 0.000238317 0.000839848)
(0.000684988 0.000167902 0.000947367)
(0.000567912 0.000145767 0.000786539)
(0.000623283 0.000122424 0.000982528)
(0.000501138 7.57438e-05 0.000771043)
(0.000597988 6.71805e-05 0.000916682)
(0.000735218 0.000258417 0.00091688)
(0.000620323 0.000215141 0.000767161)
(0.000670409 0.000186169 0.000942723)
(0.000540978 8.69229e-05 0.000877261)
(0.000551169 0.00013564 0.000798757)
(0.000740689 0.000120232 0.00104773)
(0.000641845 0.000106941 0.00101278)
(0.000589107 2.83879e-05 0.000951999)
(0.0005759 3.76914e-06 0.000911729)
(0.000476639 -4.14877e-06 0.000804831)
(0.000459314 1.72506e-05 0.000752679)
(0.000608613 8.49653e-05 0.000893391)
(0.000618307 9.40259e-05 0.000971332)
(0.000577866 -6.87932e-06 0.000911116)
(0.000592741 1.39699e-05 0.000931313)
(0.000593241 -4.77835e-05 0.000917933)
(0.000568689 2.78659e-05 0.000866828)
(0.000669788 0.000108489 0.000984972)
(-3.15297e-05 -4.36344e-05 0.000169072)
(0.000503366 -2.5524e-05 0.00082735)
(0.000452965 1.56446e-05 0.00072901)
(0.000660885 0.000130024 0.000976505)
(0.000683294 0.000179928 0.00102977)
(0.000574222 -7.81216e-06 0.000962738)
(0.000715333 4.94155e-05 0.0011326)
(0.000530648 2.27538e-05 0.000832675)
(0.00065077 1.1198e-05 0.000997886)
(0.00052234 5.67068e-05 0.000824383)
(0.000499414 -1.38173e-05 0.000758107)
(0.000630974 -8.84471e-05 0.000934067)
(0.000700389 2.52053e-05 0.00110821)
(0.000696536 1.27698e-05 0.001091)
(0.000300483 -3.9912e-05 0.00043588)
(0.000226415 2.15694e-05 0.000354661)
(0.000238311 2.19102e-05 0.00035635)
(0.000226101 1.29549e-05 0.000351045)
(0.000169504 3.49926e-05 0.000306016)
(0.000203154 4.0393e-05 0.00034179)
(0.000248752 2.5953e-05 0.000357681)
(0.000195889 5.29397e-05 0.000339427)
(0.000306458 3.50647e-05 0.000541268)
(0.000296959 4.98574e-05 0.000500035)
(-2.32388e-05 -4.21783e-05 0.00015409)
(-2.69225e-05 -4.42436e-05 0.000161049)
(-2.48992e-05 -4.08442e-05 0.000149122)
(-2.63927e-05 -3.71664e-05 0.000150015)
(0.000311968 4.26128e-05 0.000504098)
(0.000273054 7.80517e-05 0.000456768)
(0.000310124 3.42129e-05 0.000445923)
(0.000259043 5.68989e-05 0.000399335)
(0.00030599 2.20464e-05 0.000431925)
(0.000280714 5.19995e-05 0.000414386)
(-2.98661e-05 -3.66001e-05 0.000155467)
(0.000302055 2.80307e-05 0.000422859)
(-3.52116e-05 -2.92646e-05 0.000165614)
(-3.02664e-05 -3.49429e-05 0.00015654)
(0.00017745 6.64366e-05 0.000289249)
(0.000160033 6.24233e-05 0.000259288)
(0.000159852 5.46332e-05 0.00026375)
(-3.36269e-05 -3.48033e-05 0.000154584)
(-2.67064e-05 -3.88373e-05 0.000165394)
(-2.60917e-05 -4.23381e-05 0.000161865)
(-3.25037e-05 -3.41575e-05 0.000175801)
(-3.40891e-05 -4.28507e-05 0.00018356)
(-2.98922e-05 -3.0726e-05 0.000167459)
(-2.87349e-05 -2.66412e-05 0.000160114)
(-3.48522e-05 -3.48858e-05 0.00015973)
(6.36942e-05 5.01116e-05 0.000247288)
(0.00010896 5.84297e-05 0.000275163)
(8.28709e-05 5.10722e-05 0.00023193)
(3.492e-05 3.68589e-05 0.000243874)
(7.47459e-05 5.01205e-05 0.000241391)
(0.000135503 5.49102e-05 0.000247237)
(0.000165113 6.58402e-05 0.000287172)
(0.000210923 5.24723e-05 0.00026598)
(0.000184734 5.70663e-05 0.000257687)
(0.000174515 7.02994e-05 0.000281216)
(0.000120159 6.2646e-05 0.000239163)
(0.000158495 6.07527e-05 0.000242431)
(0.000223133 4.6101e-05 0.000304305)
(0.000208306 4.87462e-05 0.000305787)
(0.00026165 3.1063e-05 0.000340403)
(0.000204648 4.52665e-05 0.000319694)
(0.000231618 2.86842e-05 0.000322178)
(0.000198671 4.40486e-05 0.0003101)
(0.000263219 6.85357e-05 0.000365662)
(0.00027284 4.07254e-05 0.00032553)
(0.000232239 5.03824e-05 0.000310997)
(0.000215687 4.87068e-05 0.000302387)
(0.000273548 3.33008e-05 0.000382517)
(0.000261009 3.75501e-05 0.000335258)
(0.000293235 5.66406e-05 0.000413461)
(0.000223458 7.60917e-05 0.00032635)
(0.000284954 3.94961e-05 0.000349838)
(0.000258832 3.98695e-05 0.000300973)
(0.000291673 4.59458e-05 0.00035041)
(0.000257285 5.93759e-05 0.000338256)
(0.000274949 5.95349e-05 0.000391891)
(0.000314317 2.78097e-05 0.000414547)
(0.000319839 1.34299e-05 0.000395732)
(0.000335561 4.86672e-05 0.000455231)
(0.000354173 5.15708e-05 0.000452274)
(0.000343835 2.04866e-05 0.000388634)
(0.000313963 1.99006e-05 0.000317527)
(0.000336643 4.09897e-05 0.0003871)
(0.000245752 4.78329e-05 0.000284757)
(0.000208579 4.39483e-05 0.000247979)
(0.000258791 5.65409e-05 0.000296171)
(1.0949e-06 1.99254e-05 0.000199201)
(3.77833e-05 3.67431e-05 0.000198923)
(-2.43807e-05 7.41616e-07 0.000155535)
(2.94864e-05 2.35771e-05 0.000155893)
(8.40621e-05 4.55096e-05 0.000200767)
(0.000152575 5.00823e-05 0.000218619)
(8.50692e-05 4.40069e-05 0.000182476)
(-6.93164e-05 -2.43172e-05 9.92904e-05)
(2.36226e-05 1.15715e-05 9.22275e-05)
(-9.37526e-05 -6.14312e-05 7.10064e-05)
(-7.83153e-05 -3.66784e-05 5.52444e-05)
(-1.8682e-05 -7.43285e-06 4.06918e-05)
(3.22402e-05 1.73636e-05 0.000103223)
(4.58141e-05 1.68152e-05 7.09119e-05)
(9.21203e-05 3.78187e-05 0.000134716)
(0.00014022 3.12052e-05 0.000101556)
(2.18898e-05 7.9109e-06 4.49115e-05)
(5.09808e-05 1.86585e-05 6.75846e-05)
(0.000133966 3.60253e-05 8.6261e-05)
(0.000334284 4.50402e-05 0.000361085)
(0.000411566 9.74473e-06 0.00044573)
(0.000358548 2.25738e-05 0.000391585)
(0.000413257 1.93243e-05 0.000440209)
(0.000214596 5.6732e-05 0.000255827)
(0.000310727 2.91847e-05 0.000310541)
(0.000262782 4.22582e-05 0.000273403)
(0.000296754 4.34625e-05 0.000309766)
(0.000209718 5.46122e-05 0.000226846)
(0.000259757 5.03165e-05 0.000283869)
(0.000351719 8.14283e-06 0.000281529)
(0.000425787 2.10652e-05 0.000374396)
(0.000440859 -9.53188e-06 0.000413796)
(0.000404733 6.61646e-06 0.000346893)
(0.000365104 3.44929e-05 0.000376796)
(0.000204894 3.64649e-05 0.00013285)
(0.000240069 3.73358e-05 0.000178498)
(0.000311237 2.00074e-05 0.000234496)
(0.00027602 2.95096e-05 0.00016923)
(0.000282093 3.52557e-05 0.000206279)
(0.000190403 4.17611e-05 0.000131594)
(0.000255373 3.43243e-05 0.000166967)
(0.000386099 2.92343e-05 0.00030756)
(0.00042289 -3.39409e-06 0.000326985)
(0.000483002 -2.02442e-05 0.00032287)
(0.000400326 8.94453e-06 0.000267787)
(0.000360193 1.6226e-05 0.000235677)
(0.000395016 6.3051e-06 0.000240333)
(0.00027647 4.54445e-05 0.000469833)
(0.000286492 2.52145e-05 0.00047121)
(0.000324458 -2.22761e-05 0.000504195)
(0.000314448 1.17559e-05 0.000491364)
(0.000261462 6.43329e-05 0.00044305)
(0.000295038 8.48192e-06 0.000447271)
(0.000412231 -2.9472e-05 0.000610913)
(0.000285758 2.79754e-05 0.000468249)
(0.000306741 1.38218e-05 0.000472701)
(0.000350625 2.44572e-05 0.000542055)
(0.000335265 7.1172e-06 0.000480364)
(0.00029903 2.773e-05 0.000441511)
(0.000329539 2.85279e-05 0.00048703)
(0.000430113 -8.25483e-06 0.000614205)
(0.000456752 1.32202e-05 0.000748892)
(0.000338161 3.81619e-05 0.000535791)
(0.000381204 4.09816e-05 0.000614221)
(0.000383565 4.83292e-05 0.000640009)
(0.000402447 -2.28074e-06 0.000611934)
(0.000530916 -7.25367e-05 0.000746574)
(0.000480903 -8.66249e-05 0.000651017)
(0.000387027 7.5249e-05 0.000643168)
(0.000395923 1.01376e-05 0.000602004)
(0.000340863 3.35519e-05 0.000508808)
(0.000382096 2.74633e-05 0.000563279)
(0.000364524 1.22004e-05 0.000503128)
(0.000308911 3.66008e-05 0.00044344)
(0.000352116 3.0776e-05 0.000496846)
(-3.64015e-05 -3.03576e-05 0.000161627)
(0.000438998 -3.28298e-05 0.000583956)
(0.000382357 2.15659e-05 0.000510862)
(0.000432758 3.65164e-05 0.000589196)
(0.000374819 1.72335e-05 0.000564744)
(0.000420923 -1.04666e-06 0.000577649)
(0.000484897 -1.17562e-05 0.000654661)
(0.000400685 -2.07245e-06 0.000509134)
(0.000363413 1.096e-05 0.0004322)
(0.000373522 4.51255e-05 0.000515401)
(0.000604743 -3.86351e-05 0.000920709)
(0.000410966 2.91769e-05 0.000640096)
(-3.65318e-05 -2.61295e-05 0.000149349)
(0.000431018 1.23667e-05 0.000636368)
(0.000492334 1.66735e-05 0.000735683)
(0.000581427 -3.8104e-05 0.000839998)
(0.000559179 -5.81264e-05 0.000754473)
(0.00039082 1.91048e-05 0.000559019)
(-4.16755e-05 -2.15686e-05 0.000161181)
(0.000459817 -7.47322e-05 0.000526875)
(0.000495685 8.38131e-06 0.000671265)
(0.000555676 -1.98127e-05 0.000809902)
(0.00046645 6.62391e-06 0.000675226)
(0.000526994 2.11051e-05 0.000757809)
(0.000574453 -1.42014e-05 0.000778679)
(0.000480928 5.11692e-05 0.00068183)
(0.000638463 -7.18066e-05 0.000821144)
(0.00052497 -2.40947e-05 0.00068048)
(0.000573717 9.25414e-07 0.00078597)
(0.000464026 2.78969e-05 0.000727594)
(0.000464558 -1.93488e-05 0.000684171)
(0.000566587 -4.59763e-05 0.000819019)
(0.000627151 -2.89221e-05 0.000943875)
(0.000596528 -9.04118e-05 0.000857167)
(0.000535322 8.89599e-05 0.000843506)
(0.000650562 -7.41586e-05 0.000980865)
(0.000602304 0.000105741 0.000957507)
(0.000560947 2.8316e-05 0.000871796)
(0.000541731 1.10334e-05 0.000812783)
(0.000645848 -5.12706e-05 0.000929973)
(0.000512838 -4.81817e-06 0.000775447)
(0.000542918 -1.79186e-05 0.000766442)
(0.00062895 -4.80126e-05 0.000863601)
(0.000737596 -7.52855e-05 0.000981201)
(0.00054074 -2.30068e-05 0.0007731)
(0.000595679 -4.99638e-05 0.000755861)
(0.000655865 2.21428e-05 0.000908401)
(0.00041127 2.37363e-05 0.000502138)
(0.000389929 -2.47508e-05 0.000470413)
(0.000446977 -3.26593e-05 0.000489629)
(0.000454189 3.01739e-05 0.000593538)
(0.000532045 -3.2694e-06 0.000670862)
(0.000470918 3.38127e-05 0.000580989)
(0.00046381 -1.92737e-05 0.00050443)
(0.000447643 -3.04463e-06 0.000436125)
(0.000465114 1.167e-05 0.000490453)
(0.000555363 -2.81864e-05 0.000599335)
(0.000511737 -3.38538e-05 0.000507897)
(0.000550644 -2.06277e-05 0.000581058)
(0.000593186 -5.09544e-05 0.00069554)
(-4.44069e-05 -1.73854e-05 0.000159448)
(0.000506695 -1.52755e-05 0.00060875)
(0.00055501 -1.36765e-05 0.000680811)
(0.000690231 -0.000103232 0.000832015)
(0.000592582 -4.18593e-05 0.000689529)
(0.000630016 -9.95195e-06 0.00079891)
(-4.77172e-05 -1.26875e-05 0.000160787)
(0.000639094 -7.91596e-05 0.000690078)
(0.000609494 -0.000104445 0.000531201)
(-3.62315e-05 -3.48599e-05 0.0001841)
(0.000608435 -1.11671e-05 0.000707032)
(0.000501068 -1.66324e-05 0.000476507)
(-4.03066e-05 -2.75414e-05 0.000187422)
(0.000489345 -2.5851e-05 0.000413281)
(0.000504004 2.99174e-07 0.000474927)
(-3.44887e-05 -3.46424e-05 0.000169287)
(0.000577941 -1.43334e-05 0.000442865)
(-3.76214e-05 -1.70441e-05 0.00017055)
(-4.09616e-05 -2.90762e-05 0.000184181)
(0.000562481 -7.22105e-05 0.00048186)
(0.000577866 -7.95581e-05 0.000426011)
(-4.21545e-05 -2.77218e-05 0.000183954)
(0.000580802 -4.39836e-06 0.000595639)
(0.00055216 -0.000417304 0.000151865)
(-4.57092e-05 -2.02525e-05 0.000179253)
(0.000589933 -0.000452146 6.43416e-05)
(0.000476555 -0.000378575 8.39546e-05)
(-4.46973e-05 -2.08635e-05 0.000183295)
(0.000417339 -0.000359564 0.000143984)
(0.000465152 -0.000396155 0.000109666)
(-4.86141e-05 -1.345e-05 0.000192093)
(0.000357258 -0.000321471 9.85405e-05)
(0.000421847 -0.000330785 0.000188698)
(-3.73663e-05 -1.99868e-05 0.000165164)
(-3.3844e-05 -1.77464e-05 0.000152241)
(0.000453183 -0.000368359 8.26798e-05)
(-3.94894e-05 -2.41313e-05 0.000154741)
(-4.13858e-05 -1.86011e-05 0.000169184)
(0.000304493 -0.000281914 0.000146102)
(-3.98073e-05 -1.61765e-05 0.000153631)
(-4.37724e-05 -1.35874e-05 0.000167593)
(0.000353006 -0.000328106 0.000128691)
(-4.23381e-05 -1.29382e-05 0.000151818)
(0.000269808 -0.000249168 0.000124844)
(0.000189201 -0.000191513 0.000114407)
(0.00026431 -0.000251227 0.00014857)
(0.000204602 -0.000179272 0.000146375)
(0.000172317 -0.000169696 0.000115305)
(0.000222812 -0.000194771 0.000131011)
(0.000177626 -0.000162375 0.000122461)
(0.000295414 -0.000239754 0.000185385)
(0.000323659 -0.000274192 0.000127632)
(0.000354403 -0.000349216 6.08008e-05)
(0.000478439 -0.000403885 7.07457e-05)
(0.000344574 -0.000286528 0.000112138)
(0.000208465 -0.000208448 8.03032e-05)
(0.000336797 -0.000310813 0.000103953)
(0.000248688 -0.000209434 0.000136171)
(0.000227362 -0.000215827 0.0001418)
(0.000250628 -0.000203463 0.00015983)
(0.000290204 -0.000240752 0.00010815)
(0.000134144 -0.00015284 7.03445e-05)
(0.00019505 -0.000167915 0.000112275)
(0.000155007 -0.000135595 0.000113655)
(8.36309e-05 -7.03131e-05 9.95011e-05)
(0.000124319 -0.000106845 0.000120687)
(0.000106031 -6.69091e-05 0.000132534)
(9.70582e-05 -6.43033e-05 0.000131736)
(9.06525e-05 -2.73372e-05 0.000140287)
(6.63814e-05 -3.50878e-05 0.000105898)
(-2.56199e-05 -3.90152e-05 0.000145371)
(7.55112e-05 -3.49067e-05 0.000107141)
(7.7306e-05 -3.91581e-05 0.000102908)
(7.4973e-05 -1.63625e-05 0.000120108)
(7.62197e-05 -1.2915e-05 0.000118487)
(0.00016654 -0.000165877 0.000133845)
(-2.84455e-05 -3.57284e-05 0.000147754)
(0.000110167 -0.000105737 0.000102208)
(0.00015727 -0.000134734 0.00012332)
(0.000133445 -0.000106218 0.000126337)
(0.000109926 -8.95984e-05 0.00012376)