/*--------------------------------*- C++ -*----------------------------------*\
  =========                 |
  \\      /  F ield         | OpenFOAM: The Open Source CFD Toolbox
   \\    /   O peration     | Website:  https://openfoam.org
    \\  /    A nd           | Version:  7
     \\/     M anipulation  |
\*---------------------------------------------------------------------------*/
FoamFile
{
    version     2.0;
    format      ascii;
    class       volVectorField;
    location    "100";
    object      wallShearStress;
}
// * * * * * * * * * * * * * * * * * * * * * * * * * * * * * * * * * * * * * //

dimensions      [0 2 -2 0 0 0 0];

internalField   uniform (0 0 0);

boundaryField
{
    wall
    {
        type            calculated;
        value           nonuniform List<vector> 
73765
(
(7.67232e-11 -2.6588e-11 -6.10325e-11)
(2.90659e-10 3.82088e-11 2.50571e-10)
(-6.04603e-11 -3.66015e-11 8.34681e-12)
(-1.30201e-10 -3.22921e-10 1.96801e-10)
(-5.13002e-10 -1.05174e-09 4.65618e-10)
(1.24021e-11 3.20383e-11 2.11934e-10)
(-5.50566e-10 -9.55937e-11 5.90535e-10)
(-1.05971e-10 -2.38995e-11 9.95323e-11)
(-4.40915e-10 -1.38795e-09 1.93223e-10)
(5.48084e-11 5.11262e-11 3.23153e-10)
(-3.25047e-10 3.84781e-11 5.82758e-10)
(1.82014e-10 3.40688e-10 1.73926e-10)
(5.51907e-11 3.41935e-10 4.22939e-10)
(-1.44643e-10 -2.16465e-10 1.73569e-10)
(-2.99517e-10 -4.89718e-10 2.47236e-10)
(-1.03242e-09 -1.20144e-09 6.64865e-10)
(-7.21837e-10 -7.28073e-10 7.31146e-10)
(-5.29949e-10 -1.11693e-09 2.39785e-10)
(-8.81538e-11 -1.3618e-09 -3.38392e-12)
(-7.28412e-11 -1.30634e-09 1.77336e-10)
(-2.75311e-10 -1.28138e-09 4.62526e-10)
(-1.63164e-10 -1.06498e-09 6.40766e-11)
(-4.42148e-10 -8.99349e-10 2.41872e-10)
(-2.28949e-10 -8.02068e-10 1.67896e-11)
(1.58904e-11 7.02899e-11 1.94092e-10)
(2.03622e-11 5.12844e-11 1.18215e-10)
(3.0464e-10 5.30404e-11 4.74113e-10)
(4.66072e-10 -2.6397e-10 -2.17949e-10)
(1.63102e-11 8.67431e-12 -8.96916e-12)
(-1.21192e-10 -7.34315e-12 1.38525e-11)
(-1.19398e-10 4.8431e-12 2.46623e-11)
(-1.02071e-10 -4.26961e-11 -1.04165e-11)
(-1.7161e-10 -9.77296e-11 1.40713e-10)
(-7.73916e-11 -1.07394e-09 -2.45246e-10)
(-3.80657e-10 -1.71452e-09 -1.80277e-11)
(8.48511e-11 -9.70408e-10 2.13719e-12)
(-1.37488e-09 -1.72216e-09 7.17504e-10)
(-4.26285e-10 -1.04667e-09 2.46063e-10)
(-1.10465e-09 -1.48013e-09 9.14201e-10)
(2.77789e-11 1.26757e-11 8.61005e-11)
(5.37116e-11 8.44993e-11 2.07258e-10)
(5.37203e-11 6.6366e-14 9.79113e-11)
(1.88388e-11 1.70567e-11 1.13607e-10)
(2.3765e-10 1.66013e-10 4.87024e-10)
(2.38785e-10 1.25763e-10 3.47733e-10)
(2.98384e-10 1.14552e-10 4.01779e-10)
(5.13907e-10 -2.17957e-10 -1.75624e-10)
(3.47315e-10 -2.02257e-10 -9.11769e-11)
(-1.88179e-10 -1.05585e-10 5.79571e-10)
(-2.68226e-10 3.24407e-14 4.62717e-10)
(-1.31383e-10 -1.12504e-10 2.72297e-10)
(-2.79559e-10 -3.60267e-11 -1.09797e-10)
(6.38692e-11 4.95517e-11 7.8217e-11)
(-1.82756e-10 -2.41052e-11 6.87107e-11)
(-4.11598e-10 -7.24852e-10 3.40829e-10)
(-2.20052e-10 -4.34781e-10 2.49092e-10)
(-2.13419e-10 -5.50443e-10 3.27261e-10)
(5.96942e-11 -4.95549e-11 2.12839e-10)
(7.04261e-11 -1.31173e-10 1.71448e-10)
(2.88729e-10 -1.82269e-09 -1.10762e-10)
(2.08703e-10 -1.28788e-09 -7.79814e-11)
(1.29773e-10 -1.19803e-09 -6.2915e-11)
(-7.50167e-10 -1.77469e-09 1.45244e-11)
(-2.6287e-10 -1.70561e-09 -1.03597e-10)
(-2.9489e-11 1.34838e-11 8.83911e-13)
(1.57086e-11 1.75314e-11 -2.00496e-11)
(1.49279e-11 1.9862e-11 -2.51749e-11)
(9.2652e-12 2.12007e-11 -2.84591e-11)
(-2.75887e-12 2.20854e-11 -3.28558e-11)
(1.8983e-10 -1.24357e-09 6.26164e-11)
(-6.57926e-10 -1.35078e-09 3.34375e-10)
(-4.03922e-10 -1.35466e-09 8.31228e-11)
(-1.07794e-09 -1.38169e-09 3.99177e-10)
(-1.02851e-09 -1.60409e-09 5.03676e-10)
(-7.51375e-10 -1.07263e-09 2.19554e-10)
(-5.54264e-10 -8.90899e-10 2.60697e-10)
(-6.17887e-10 -1.19174e-09 7.79698e-11)
(-8.93952e-10 -8.22836e-10 8.28899e-10)
(-1.18304e-09 -1.31055e-09 6.17621e-10)
(-6.03514e-10 -7.72774e-10 8.31661e-10)
(-4.74742e-10 -6.50648e-10 5.72956e-10)
(-1.31629e-10 -1.34958e-09 5.45015e-11)
(-2.47788e-10 -9.95377e-10 1.12055e-10)
(-4.04201e-10 -1.55548e-09 1.15393e-09)
(-3.04884e-10 -1.66438e-09 1.11332e-09)
(-4.39583e-10 -1.28047e-09 7.61531e-10)
(-3.81956e-10 -1.29392e-09 5.45375e-10)
(-1.96179e-10 -9.88941e-10 1.11213e-10)
(-1.00752e-09 -1.83671e-09 1.3096e-09)
(-5.27268e-10 -8.88536e-10 2.38102e-10)
(-5.0433e-10 -1.21867e-09 3.20797e-10)
(2.82929e-10 5.66472e-11 4.58831e-10)
(-2.33364e-10 7.61234e-11 4.12461e-10)
(-1.57036e-10 -1.61056e-09 -7.95394e-11)
(2.83842e-10 -1.67613e-09 -1.34157e-10)
(-3.70084e-10 -1.90775e-09 -4.58994e-11)
(-1.7384e-10 -1.21667e-11 7.32706e-10)
(-2.6997e-10 -3.59677e-11 5.20912e-10)
(-1.2664e-10 -3.36611e-11 2.09487e-11)
(-1.44485e-10 -1.08306e-09 7.85999e-11)
(1.73461e-11 4.47701e-11 1.02108e-10)
(-1.87937e-10 -3.12425e-11 5.30244e-10)
(-2.82783e-10 8.26772e-11 -1.45031e-10)
(-6.37293e-11 4.18404e-12 -1.29461e-11)
(3.81468e-10 4.61348e-10 5.36567e-10)
(6.99966e-10 4.27962e-10 7.08728e-10)
(-1.42584e-10 -6.74784e-11 -1.30694e-11)
(-1.72936e-10 -1.42584e-10 1.47176e-10)
(-1.5331e-10 -1.41353e-10 1.53063e-10)
(-9.47466e-11 -1.38383e-12 3.22778e-12)
(-1.36171e-10 -1.48161e-11 3.13121e-11)
(1.35622e-10 -5.18004e-10 -3.21123e-11)
(-1.55995e-10 -1.25808e-09 -2.37389e-10)
(-1.1852e-10 -9.85102e-10 -2.19686e-10)
(-2.20615e-10 -1.50974e-09 -1.91848e-10)
(3.78596e-11 -8.17162e-11 1.78912e-10)
(-2.23249e-11 1.68884e-11 -1.47172e-11)
(-2.02778e-10 -7.8536e-10 -5.17108e-12)
(-6.13901e-10 -1.61199e-09 3.23294e-10)
(-4.4605e-10 -1.34036e-09 6.96174e-10)
(3.43143e-10 4.38873e-11 2.71972e-10)
(3.85597e-10 -1.02508e-10 2.15016e-11)
(3.97492e-10 -2.60978e-10 -1.34057e-10)
(-1.76761e-10 -6.2067e-11 1.05844e-10)
(-1.96926e-10 -1.33556e-09 -2.3145e-10)
(-1.63697e-10 -1.00378e-09 -2.15334e-10)
(-2.69071e-11 -8.16899e-10 -2.08014e-11)
(-3.86311e-10 -1.75296e-09 9.3069e-12)
(-9.20188e-10 -1.50699e-09 6.31762e-10)
(-1.11173e-10 -8.59458e-10 2.3824e-12)
(-1.95373e-10 -8.28964e-10 -3.81379e-11)
(3.94812e-11 7.3102e-11 2.69322e-10)
(4.35182e-11 6.18302e-11 2.01981e-10)
(2.73363e-10 5.76361e-11 3.13222e-10)
(2.45771e-10 4.64013e-11 3.39602e-10)
(5.83704e-10 -2.11295e-10 -1.41347e-10)
(5.66896e-10 -1.98787e-10 -7.28792e-11)
(4.59734e-10 -1.46737e-10 -2.97029e-11)
(4.66279e-10 -2.31661e-10 -3.46271e-11)
(4.12517e-10 -1.57618e-10 -5.42278e-11)
(4.6225e-10 -2.26068e-10 -1.06376e-10)
(4.36466e-10 -1.59684e-10 -4.00026e-11)
(3.238e-10 -9.12694e-11 -3.38605e-11)
(2.53839e-10 -1.0168e-10 -4.09105e-11)
(3.285e-10 -1.59698e-10 -5.40928e-11)
(2.9717e-10 -1.62888e-10 -2.90317e-11)
(2.96574e-10 -1.58298e-10 -1.59991e-10)
(-1.78271e-10 -8.87895e-11 6.36515e-10)
(-2.26646e-10 -6.44599e-11 6.98908e-10)
(5.10374e-12 -6.18815e-12 -3.91378e-12)
(-1.14965e-10 2.49413e-09 1.04498e-08)
(-2.68703e-10 -3.03921e-11 -1.03688e-10)
(-2.82412e-10 -4.27994e-11 -1.44562e-10)
(7.36967e-10 4.72264e-10 5.1945e-10)
(4.48196e-10 4.37482e-10 2.48648e-10)
(9.46963e-10 4.33e-10 4.04061e-10)
(4.92379e-10 5.20131e-10 4.82884e-10)
(8.10498e-10 5.0544e-10 6.60476e-10)
(7.84903e-10 4.58174e-10 5.23825e-10)
(-1.43938e-10 -3.66174e-11 2.73426e-11)
(-1.7535e-10 -1.3159e-10 2.91419e-11)
(-1.92667e-10 -1.33037e-10 5.98298e-11)
(-1.30103e-10 -6.15499e-11 1.61723e-11)
(-9.88029e-11 1.6204e-11 2.84437e-11)
(-1.63388e-10 -1.97619e-10 2.21251e-11)
(-1.6408e-10 -2.74549e-10 1.95027e-10)
(-1.61518e-10 -1.49534e-10 7.72881e-12)
(-1.5979e-10 -2.15499e-10 4.0214e-11)
(-1.72083e-10 -2.18643e-11 9.50968e-11)
(-1.84954e-10 -3.02528e-11 4.61087e-11)
(-1.77848e-10 -4.25706e-11 6.99992e-11)
(-1.47756e-10 1.01546e-11 9.95283e-11)
(-1.71555e-10 -1.91442e-11 6.97771e-11)
(-1.82118e-10 -6.09237e-11 2.78281e-11)
(-1.41115e-10 -1.3133e-10 1.40549e-10)
(-2.11363e-10 -1.16197e-10 7.55564e-11)
(-1.02922e-10 -1.46757e-11 2.32747e-12)
(-3.78699e-10 -7.46366e-10 4.86011e-10)
(-1.41643e-10 -2.2453e-10 -4.61771e-11)
(1.05767e-10 -3.79914e-10 1.08403e-10)
(-1.0739e-10 -7.8849e-10 -1.72353e-10)
(-8.16289e-12 -6.56015e-10 1.8165e-11)
(9.80178e-11 -3.77991e-10 1.31708e-10)
(-1.46096e-10 -5.36165e-13 1.09127e-10)
(-1.69729e-10 -1.1488e-11 1.08702e-10)
(-7.77533e-11 4.43798e-13 1.20723e-10)
(-1.70094e-10 -4.18052e-11 1.21731e-10)
(-1.44887e-10 -1.00618e-10 1.25154e-10)
(-1.40723e-10 -5.98882e-11 3.09195e-11)
(-7.85036e-11 -1.9441e-10 1.78463e-10)
(-2.44793e-10 -2.18449e-09 -4.01351e-10)
(-8.14565e-11 -8.03253e-10 -1.2201e-10)
(-6.76367e-11 -3.46693e-12 1.32077e-10)
(1.05606e-10 -9.99706e-10 -1.05437e-10)
(-5.37772e-10 -2.44566e-09 -1.08472e-10)
(-1.84802e-10 -1.49505e-09 -1.48759e-10)
(-7.40709e-10 -1.63939e-09 6.93354e-12)
(-7.38409e-10 -1.78673e-09 1.22317e-11)
(1.54478e-12 2.23298e-11 -3.13094e-11)
(-1.32244e-09 -1.69374e-09 3.66402e-10)
(-1.00366e-09 -1.69176e-09 7.60707e-10)
(-6.77119e-10 -1.90015e-09 3.27878e-10)
(-5.01976e-10 -1.36446e-09 6.62353e-11)
(-1.24027e-09 -1.72853e-09 1.16695e-09)
(-5.90181e-10 -7.69604e-10 3.9256e-10)
(-1.34306e-09 -1.80564e-09 6.22925e-10)
(-1.59887e-10 -1.36753e-09 2.32848e-10)
(-4.34819e-11 -8.14938e-10 5.94746e-11)
(-1.68883e-10 -1.74235e-09 3.67563e-10)
(-8.94954e-11 -1.15658e-09 2.19051e-11)
(-8.1811e-10 -1.26847e-09 3.97071e-10)
(-9.25196e-10 -1.81345e-09 5.61729e-10)
(-7.53965e-10 -1.3803e-09 4.20751e-10)
(-2.3984e-10 1.43462e-10 4.23012e-10)
(-7.68082e-11 -3.67143e-11 1.06653e-11)
(-2.5217e-10 -8.14637e-12 5.32442e-10)
(-2.15786e-10 -2.00462e-09 -4.05606e-10)
(-4.89313e-10 -1.75868e-09 2.50136e-11)
(-1.27462e-10 -3.69296e-11 4.22853e-10)
(5.44484e-10 -1.4985e-10 -5.08538e-11)
(-4.68949e-10 -1.74171e-09 4.87342e-11)
(-5.68839e-10 -1.17048e-09 4.92698e-10)
(2.03025e-10 1.97318e-10 2.93871e-10)
(4.02844e-10 -2.05326e-10 -4.20555e-11)
(3.79523e-10 -1.50572e-10 -5.40975e-11)
(1.12214e-11 3.27211e-12 -1.10726e-11)
(-9.4762e-11 -6.91467e-10 6.0859e-11)
(2.55659e-10 -1.52393e-10 -9.44133e-11)
(-4.2221e-10 -5.87585e-11 7.2121e-10)
(-2.69738e-10 1.05857e-10 -1.58208e-10)
(1.59358e-10 1.1382e-10 1.80839e-10)
(-1.7282e-10 -1.76529e-10 7.18377e-11)
(-1.68055e-10 -1.74068e-10 6.75304e-11)
(-6.18131e-11 2.39642e-12 1.28201e-10)
(7.5891e-12 9.07385e-13 -1.73889e-11)
(4.63586e-12 7.75499e-13 -3.13386e-12)
(2.62183e-10 -2.7415e-11 2.99766e-10)
(4.1115e-11 -2.38485e-12 5.95846e-11)
(-3.11133e-11 -6.35628e-11 -1.27391e-10)
(-2.91062e-12 1.52368e-12 1.55026e-11)
(1.49061e-11 5.28289e-12 -6.96311e-12)
(7.79769e-11 -6.54832e-12 5.64743e-11)
(2.08535e-10 -4.07696e-11 2.07698e-10)
(1.89783e-10 -1.6219e-11 3.07538e-10)
(-1.23267e-10 3.03303e-11 1.32674e-10)
(1.90423e-11 2.91381e-12 -4.15524e-11)
(-6.84819e-11 -1.88861e-11 -2.24383e-11)
(-5.07794e-11 -2.36742e-11 -5.94752e-12)
(-4.19234e-11 -1.51122e-10 3.45165e-10)
(5.53229e-10 -1.86212e-10 -1.70294e-10)
(2.5845e-10 -1.35326e-10 -5.6901e-11)
(-1.99224e-10 -5.58583e-11 3.94054e-10)
(1.21962e-11 2.6816e-12 -1.09474e-11)
(-1.23104e-10 -3.27857e-11 -4.63587e-11)
(-1.23729e-10 -1.06193e-11 -6.47419e-11)
(6.39016e-11 7.70287e-11 1.22376e-10)
(-6.71064e-11 -2.95962e-10 2.31072e-10)
(5.97348e-11 9.22311e-11 1.45403e-10)
(-1.98076e-11 -4.14679e-11 1.15565e-10)
(-9.7118e-10 -2.32694e-09 6.14034e-11)
(4.14711e-11 2.04854e-11 6.54796e-11)
(1.64852e-11 7.88683e-11 1.82719e-10)
(-2.1078e-11 8.452e-11 2.41665e-10)
(6.77474e-11 -3.59865e-11 -7.38299e-11)
(1.6649e-11 -6.99017e-13 -1.43935e-11)
(6.79106e-12 7.84901e-13 -6.49339e-12)
(4.78258e-12 7.56545e-13 -3.52849e-12)
(-1.77885e-10 1.16477e-11 4.95864e-10)
(-1.61491e-10 5.15609e-11 4.69683e-10)
(-1.71476e-10 8.36136e-11 4.94296e-10)
(1.19767e-12 -2.29783e-12 -2.9999e-12)
(-5.22254e-12 6.63719e-13 8.45774e-13)
(-9.23952e-12 1.57721e-12 1.01728e-12)
(-8.43119e-12 1.40208e-12 1.04849e-12)
(-1.33204e-10 1.75463e-11 3.82123e-10)
(1.47531e-12 -1.70559e-12 -1.10143e-12)
(7.65828e-11 -6.72538e-12 5.54242e-11)
(-1.46807e-10 3.85696e-11 4.24943e-10)
(8.12933e-11 -8.16032e-12 5.84082e-11)
(8.44195e-11 -1.04448e-11 6.1811e-11)
(-5.18666e-10 7.95417e-12 -1.1394e-10)
(-6.82471e-11 2.99861e-11 2.54203e-10)
(-6.60855e-11 2.85344e-11 2.31481e-10)
(2.83391e-12 8.331e-13 3.79548e-11)
(-2.23533e-10 -4.84353e-11 -7.15362e-11)
(-2.5566e-10 -1.06433e-11 -8.10226e-11)
(7.29534e-11 -7.09704e-12 -4.20685e-11)
(-2.35304e-10 3.38999e-11 -1.27263e-10)
(-2.64784e-10 2.06143e-11 2.68409e-10)
(-1.17013e-10 -1.38551e-11 -5.55468e-11)
(-3.61166e-11 -1.70667e-11 1.91122e-11)
(-7.08103e-11 -2.87862e-11 -2.92536e-11)
(-5.66849e-11 -3.09347e-11 -1.31003e-11)
(6.1851e-11 7.87233e-11 1.20136e-10)
(6.03454e-11 8.05402e-11 1.26516e-10)
(-3.21062e-11 -1.31357e-10 1.91513e-10)
(-9.36072e-11 -1.58052e-10 2.10181e-10)
(-2.9517e-11 -1.02254e-10 2.86738e-11)
(-6.2551e-11 -3.45999e-10 3.83726e-11)
(-4.7145e-11 -1.3268e-10 1.44923e-11)
(-1.32601e-10 -5.82274e-10 2.59383e-10)
(-4.75191e-11 -1.59907e-11 -1.31124e-11)
(-3.49304e-11 -1.70552e-11 -7.96097e-12)
(3.86309e-11 3.80534e-11 9.18435e-11)
(2.77939e-11 5.32635e-11 1.11248e-10)
(4.35304e-11 6.1483e-12 8.58842e-11)
(6.09592e-11 -2.15198e-11 3.40916e-10)
(4.14223e-11 6.40349e-11 2.53114e-10)
(2.87118e-11 6.62434e-11 1.59757e-10)
(2.13844e-11 3.18368e-11 1.13891e-10)
(4.26201e-11 2.46678e-11 7.1953e-11)
(2.93881e-11 5.87652e-11 1.00998e-10)
(2.16103e-10 6.32763e-11 3.88124e-10)
(1.01799e-10 8.09041e-11 3.64421e-10)
(1.32524e-11 7.66358e-11 1.75254e-10)
(3.57235e-11 3.98823e-11 7.59004e-11)
(2.1783e-10 9.45312e-11 4.15647e-10)
(2.01569e-12 8.38566e-11 1.45696e-10)
(3.81711e-11 -1.60008e-12 6.56368e-11)
(2.70434e-10 -4.60398e-11 4.08926e-10)
(2.13713e-10 8.51291e-11 3.95607e-10)
(3.20846e-11 7.20913e-11 2.14085e-10)
(2.69799e-11 -2.46681e-12 7.76879e-11)
(3.5651e-11 5.99134e-12 5.27596e-11)
(3.62432e-11 1.85096e-11 5.62333e-11)
(2.30388e-10 8.62716e-11 3.63842e-10)
(-4.93908e-12 8.54131e-11 1.18492e-10)
(2.21741e-11 -2.6086e-12 8.20268e-11)
(1.70829e-10 8.50027e-11 3.68215e-10)
(-2.19448e-12 7.30561e-11 1.90287e-10)
(1.754e-11 -1.30972e-12 7.85536e-11)
(2.66092e-11 -4.49866e-12 5.1568e-11)
(1.9646e-10 3.16443e-11 3.09066e-10)
(3.38549e-11 1.16222e-11 5.06965e-11)
(2.55369e-10 8.03941e-11 3.0049e-10)
(-2.47119e-12 7.68773e-11 9.29844e-11)
(-2.10521e-11 4.82208e-11 3.20295e-10)
(-6.37516e-11 6.42968e-11 2.22694e-10)
(-5.69362e-11 8.9723e-11 1.64721e-10)
(-9.01895e-12 8.44424e-11 2.05696e-10)
(1.39534e-11 -3.90702e-13 8.55568e-11)
(3.35588e-11 2.49043e-11 5.96595e-11)
(2.74408e-10 9.69704e-11 3.69728e-10)
(-2.53204e-11 2.57324e-11 3.33841e-10)
(-3.79908e-11 7.91575e-11 1.16819e-10)
(-1.65236e-11 5.74707e-11 1.575e-10)
(9.6344e-12 2.20763e-12 8.39902e-11)
(3.02048e-11 1.40463e-10 2.8814e-10)
(2.53754e-11 -5.9863e-12 5.01161e-11)
(1.48868e-10 8.72325e-11 3.21805e-10)
(1.94619e-10 3.3671e-11 3.01471e-10)
(3.08854e-10 1.18068e-10 3.41144e-10)
(3.23364e-11 4.27161e-11 7.43962e-11)
(3.40102e-10 1.24325e-10 4.08529e-10)
(-1.96022e-11 -9.41781e-12 3.49369e-10)
(-2.46454e-11 6.58294e-11 1.66535e-10)
(7.10627e-12 4.71732e-12 9.15122e-11)
(1.54196e-11 -3.20569e-13 7.57744e-11)
(3.57519e-11 -8.23472e-12 5.69041e-11)
(4.90819e-11 1.4717e-11 7.43331e-11)
(-2.42234e-11 -2.64887e-11 4.67141e-10)
(-2.68417e-11 6.49611e-11 8.22237e-11)
(-2.48575e-11 4.26712e-11 1.32334e-10)
(-1.53379e-11 2.5826e-11 1.18064e-10)
(-4.10343e-12 1.57526e-11 1.04227e-10)
(6.38675e-12 8.20387e-12 9.29674e-11)
(1.65572e-11 2.49817e-12 8.3174e-11)
(3.12976e-10 2.15538e-10 7.76082e-10)
(6.09538e-11 3.47542e-11 1.02772e-10)
(-3.53158e-11 -3.69238e-10 -2.2199e-10)
(-9.41584e-13 5.49579e-11 7.63828e-11)
(-1.78663e-11 2.80234e-11 1.12599e-10)
(-6.73504e-12 1.78125e-11 1.0428e-10)
(6.42576e-12 1.06331e-11 9.51625e-11)
(1.85425e-11 5.75476e-12 8.81637e-11)
(-3.65506e-11 1.40406e-10 1.97386e-10)
(3.86647e-11 -5.39073e-12 7.35224e-11)
(6.82474e-11 -5.80566e-12 9.7031e-11)
(4.69833e-10 6.7524e-12 -1.77573e-10)
(1.32419e-10 2.84184e-11 1.48956e-10)
(6.23478e-10 -1.54502e-10 -1.40072e-10)
(6.33731e-10 -2.28958e-10 -1.31645e-10)
(5.68875e-10 -3.17194e-10 -2.29242e-10)
(-7.26188e-11 1.61616e-12 9.01537e-12)
(-4.22214e-11 1.48758e-11 2.93008e-11)
(-4.66831e-12 1.92823e-11 9.63167e-11)
(7.93804e-12 1.28407e-11 9.43535e-11)
(5.58673e-10 -2.25059e-10 -1.22855e-10)
(4.64042e-11 3.52809e-11 8.58732e-11)
(2.27836e-10 -3.38049e-10 -3.59625e-10)
(1.03973e-10 -2.8222e-10 -3.65767e-10)
(2.36447e-11 -2.05516e-10 -3.13578e-10)
(-1.9126e-11 -1.1178e-10 -2.03251e-10)
(-3.40696e-11 -4.78945e-11 -1.0759e-10)
(-3.38435e-11 -1.21385e-11 -3.41345e-11)
(-2.58029e-11 3.04429e-12 8.41729e-12)
(-1.04855e-11 1.37264e-11 2.34882e-11)
(-5.52502e-11 9.28742e-11 1.11518e-10)
(6.84538e-11 -4.43668e-12 9.59197e-11)
(1.39297e-10 3.25484e-11 1.40414e-10)
(8.04457e-11 2.45813e-11 9.99231e-11)
(1.57708e-12 1.84394e-12 7.65279e-12)
(1.12706e-10 2.39681e-12 1.11427e-10)
(3.01494e-10 6.51939e-12 -4.08316e-10)
(4.74371e-10 -8.42324e-11 -2.54667e-10)
(1.35996e-10 2.2875e-11 1.34662e-10)
(3.3607e-11 7.51109e-13 3.36679e-11)
(2.26713e-10 -1.43424e-10 -1.42715e-10)
(-2.49077e-11 3.06368e-11 5.4173e-11)
(8.42322e-11 2.57011e-12 9.52837e-11)
(-4.00747e-12 2.61286e-11 -2.52054e-10)
(1.30935e-10 1.08994e-11 1.21676e-10)
(1.46403e-10 1.79206e-11 1.3549e-10)
(5.76329e-11 -6.93803e-13 5.04747e-11)
(1.47473e-10 -1.08253e-10 -1.69803e-10)
(1.16784e-10 -9.19382e-11 -1.77637e-10)
(8.89153e-11 -7.18466e-11 -1.71321e-10)
(9.94619e-11 6.07195e-12 1.06999e-10)
(3.24762e-11 -6.83794e-12 -2.06081e-10)
(2.36069e-10 -3.58686e-12 -2.77683e-10)
(7.99801e-11 -3.58022e-12 6.27846e-11)
(7.01367e-11 -3.97852e-11 -1.17322e-10)
(5.82148e-11 -2.76626e-11 -1.05458e-10)
(2.58745e-11 2.99053e-12 3.18279e-11)
(4.30467e-11 -2.04126e-11 -1.54541e-10)
(1.25449e-10 9.11812e-12 1.18435e-10)
(2.01574e-10 -2.73412e-11 -1.70908e-10)
(1.39516e-10 -2.65374e-12 1.187e-10)
(9.06705e-11 -4.62013e-12 6.23762e-11)
(1.02112e-10 -5.08549e-12 7.70301e-11)
(4.94335e-11 -1.35496e-11 -7.67068e-11)
(5.10283e-11 1.20289e-12 4.89512e-11)
(1.17547e-10 9.79534e-12 1.1026e-10)
(2.4232e-11 -3.13719e-11 -8.11351e-11)
(1.43507e-10 -3.82125e-11 -1.48157e-10)
(1.6431e-10 -7.68672e-12 1.32928e-10)
(6.30229e-11 -4.04382e-12 -1.89336e-11)
(1.13065e-10 9.93827e-12 1.61893e-11)
(1.02608e-10 -5.01612e-12 7.07595e-11)
(3.91873e-11 -4.6558e-12 -5.39284e-11)
(7.13503e-11 -5.14165e-13 6.08815e-11)
(1.35928e-10 9.16868e-12 1.2711e-10)
(2.97137e-11 -2.73366e-11 -3.99436e-11)
(5.50803e-11 -1.94266e-11 -8.09807e-12)
(1.07746e-10 -4.7568e-11 -1.25826e-10)
(7.92123e-11 -4.47308e-11 -1.24084e-10)
(1.963e-10 2.06376e-11 1.77611e-10)
(1.79121e-10 -9.74009e-12 1.43016e-10)
(3.10324e-11 1.16568e-12 -2.22833e-11)
(9.3963e-11 -9.07064e-12 -2.63055e-12)
(1.13348e-10 1.15548e-11 2.38603e-11)
(1.10598e-10 6.46802e-12 3.22817e-11)
(1.12107e-10 -6.75541e-12 7.6658e-11)
(8.53556e-11 -1.64488e-12 6.97456e-11)
(7.77781e-11 -2.00513e-11 3.39395e-11)
(5.89874e-11 -4.25321e-11 -8.41205e-11)
(4.9324e-11 -4.09344e-11 -7.60694e-11)
(1.70194e-10 2.57965e-11 1.50471e-10)
(2.13905e-10 2.49581e-11 1.91031e-10)
(1.9991e-10 -1.404e-11 1.56739e-10)
(1.9585e-11 3.43567e-12 -1.98642e-11)
(3.08488e-11 -2.18408e-12 -1.0203e-11)
(1.08979e-10 7.62174e-12 3.68046e-11)
(1.12741e-10 5.47126e-12 4.43839e-11)
(1.28144e-10 -8.76696e-12 8.31645e-11)
(2.42712e-11 2.34711e-12 -3.18522e-11)
(9.94936e-11 -3.93203e-12 7.60619e-11)
(1.6322e-10 1.12959e-11 1.36504e-10)
(8.57578e-11 -1.27819e-11 5.11503e-11)
(1.67527e-10 2.18286e-11 1.41611e-10)
(2.6414e-11 -3.10795e-11 -4.00304e-11)
(2.45324e-11 -2.51902e-11 -3.02763e-11)
(1.89326e-10 2.98088e-11 1.65704e-10)
(-2.81995e-10 -6.23752e-11 5.1748e-10)
(-2.68904e-10 -6.957e-11 4.88942e-10)
(2.32758e-10 2.58936e-13 1.98204e-10)
(1.15962e-11 4.27481e-12 -1.514e-11)
(1.09812e-10 5.60989e-12 4.77052e-11)
(1.22349e-10 5.33847e-12 5.60412e-11)
(1.27215e-10 3.33124e-12 6.07475e-11)
(1.46525e-10 -1.17764e-11 9.13346e-11)
(1.51268e-11 3.27353e-12 -2.2013e-11)
(1.09367e-10 -5.54186e-12 7.97982e-11)
(1.69536e-10 1.25959e-11 1.36113e-10)
(1.95108e-10 2.97043e-11 1.63557e-10)
(-2.65173e-10 -6.49124e-11 4.90943e-10)
(2.2363e-10 3.30165e-11 1.97097e-10)
(2.52776e-10 1.20474e-12 2.13242e-10)
(-2.25166e-10 -4.45056e-11 3.94435e-10)
(4.53799e-12 4.36659e-12 -9.06713e-12)
(1.17398e-10 5.39226e-12 5.75954e-11)
(1.24926e-10 4.71823e-12 6.08253e-11)
(1.42125e-10 4.52423e-12 7.08292e-11)
(1.5563e-10 -7.42332e-12 8.79374e-11)
(1.62872e-10 -1.31299e-11 9.68381e-11)
(-1.94943e-10 -6.52796e-12 4.48765e-10)
(9.41028e-12 2.91155e-12 -1.03968e-11)
(1.19565e-10 -7.55956e-12 8.37235e-11)
(2.00285e-10 1.91023e-11 1.51721e-10)
(-1.79141e-10 -6.49732e-11 4.43989e-10)
(4.81726e-12 -1.10747e-11 -1.01634e-11)
(4.44857e-12 -7.04193e-12 -5.74655e-12)
(1.06912e-11 -9.59397e-13 8.16245e-13)
(4.44588e-11 4.61135e-12 1.46841e-11)
(2.30085e-10 3.54498e-11 2.04738e-10)
(-2.41334e-10 -6.72723e-11 4.41546e-10)
(-2.39474e-10 -6.61403e-11 4.23466e-10)
(2.62162e-10 -2.72263e-12 2.17438e-10)
(2.60739e-12 -2.44165e-12 2.45512e-12)
(9.65392e-11 3.13035e-12 5.21279e-11)
(-1.93291e-10 -1.40709e-11 3.55645e-10)
(2.40814e-13 4.37665e-12 -4.79918e-12)
(1.35532e-10 5.82734e-12 6.86844e-11)
(1.44655e-10 4.84065e-12 7.18122e-11)
(1.59456e-10 -7.97321e-12 8.69307e-11)
(1.69383e-10 -1.48233e-11 9.8483e-11)
(-1.96707e-10 1.06837e-11 4.40047e-10)
(-1.9492e-10 1.10807e-11 4.61204e-10)
(-2.17909e-10 1.76411e-11 5.11423e-10)
(-2.63103e-10 -2.56745e-12 4.7953e-10)
(1.31634e-10 -9.97748e-12 8.62397e-11)
(2.07934e-10 1.7756e-11 1.52816e-10)
(-1.97583e-10 -6.75577e-11 4.29857e-10)
(-1.66623e-10 -3.9152e-11 5.20426e-10)
(7.02663e-12 -9.22628e-12 -6.80477e-12)
(2.66893e-12 -6.977e-12 -4.78383e-12)
(-1.89773e-12 -5.35452e-12 -3.15514e-12)
(-5.40394e-12 -3.39419e-12 -1.66173e-12)
(-6.99756e-12 -1.00918e-12 -3.37665e-13)
(-4.56554e-12 1.58062e-12 8.65275e-13)
(1.43913e-11 4.52994e-12 3.4012e-12)
(3.82224e-13 -5.78107e-13 6.69173e-13)
(8.0486e-11 -1.13296e-11 2.17649e-11)
(2.7943e-10 -3.15598e-12 2.33313e-10)
(9.1397e-11 1.39822e-12 5.35546e-11)
(1.40928e-10 5.79637e-12 7.17346e-11)
(1.54657e-10 6.53538e-12 7.73957e-11)
(1.68594e-10 -9.10134e-12 9.30244e-11)
(1.84346e-10 -1.5891e-11 1.03892e-10)
(-1.8307e-10 1.62467e-11 4.26882e-10)
(-1.92231e-10 2.536e-11 4.79866e-10)
(-2.29334e-10 2.86889e-11 5.49091e-10)
(-2.80209e-10 2.63615e-11 5.65608e-10)
(-2.98073e-10 1.82369e-11 6.94875e-10)
(-3.53698e-10 -4.57127e-11 5.55922e-10)
(-1.42366e-10 -3.3721e-11 4.86227e-10)
(-2.28383e-10 -5.24258e-11 3.98937e-10)
(-2.14334e-10 5.68339e-11 6.3551e-10)
(-2.07672e-10 -4.93615e-11 3.45163e-10)
(2.87496e-10 -5.06878e-12 2.38161e-10)
(1.61307e-12 2.71038e-13 -8.61068e-13)
(9.4627e-11 -2.66688e-13 6.01937e-11)
(-1.72555e-10 -1.04707e-11 3.19017e-10)
(-2.62298e-10 1.03116e-10 5.61925e-10)
(1.49628e-10 8.45017e-12 7.40816e-11)
(1.60122e-10 6.81265e-12 7.94566e-11)
(1.77351e-10 -9.73006e-12 9.47921e-11)
(1.98006e-10 -2.01245e-11 1.06574e-10)
(-1.71877e-10 1.50729e-11 3.81552e-10)
(-1.78558e-10 2.61341e-11 4.39519e-10)
(-2.47322e-10 4.50815e-11 5.76892e-10)
(-2.64187e-10 4.08355e-11 6.05505e-10)
(-2.36862e-10 2.76082e-11 6.04094e-10)
(-1.59453e-10 -5.87611e-11 3.56232e-10)
(-1.24424e-10 -1.98662e-11 4.37274e-10)
(-1.47251e-10 4.61738e-11 5.20094e-10)
(-2.1093e-10 -5.29862e-11 3.68287e-10)
(6.69825e-11 -5.43242e-12 4.78159e-11)
(7.28175e-11 -3.67388e-12 4.89786e-11)
(3.01056e-10 -7.55445e-12 2.48417e-10)
(1.05796e-10 2.00011e-12 6.64891e-11)
(1.60442e-10 9.33123e-12 7.92419e-11)
(1.71328e-10 8.88614e-12 8.29163e-11)
(1.91931e-10 -1.23715e-11 9.60503e-11)
(2.16548e-10 -2.23277e-11 1.11192e-10)
(-1.60105e-10 1.99012e-11 3.88408e-10)
(-2.37954e-10 4.69347e-11 5.61473e-10)
(-2.3658e-10 5.08821e-11 5.67992e-10)
(1.49631e-10 -1.7756e-11 8.95249e-11)
(-1.71487e-10 -5.03694e-11 3.35175e-10)
(-1.12217e-10 -7.02533e-12 4.1049e-10)
(-1.95888e-10 -4.75082e-11 3.38267e-10)
(7.78347e-11 -4.52313e-12 5.3348e-11)
(2.99672e-10 -9.28161e-12 2.44946e-10)
(1.10478e-10 1.28827e-12 6.87279e-11)
(-1.46176e-10 -6.32934e-12 2.76792e-10)
(1.68717e-10 1.23939e-11 8.28715e-11)
(1.76518e-10 1.04214e-11 8.2877e-11)
(1.82356e-10 6.46967e-12 8.3692e-11)
(2.03061e-10 -1.27961e-11 9.64041e-11)
(2.27428e-10 -2.55432e-11 1.08762e-10)
(-1.5013e-10 1.79141e-11 3.40982e-10)
(-2.13064e-10 5.09308e-11 5.29924e-10)
(-2.22675e-10 5.56148e-11 5.49577e-10)
(1.59269e-10 -2.1924e-11 9.01997e-11)
(-1.77167e-10 -4.22032e-11 3.144e-10)
(-1.01378e-10 5.61005e-12 3.93947e-10)
(-1.98951e-10 -3.48156e-11 3.19966e-10)
(-1.75764e-10 6.80509e-11 5.43601e-10)
(2.9497e-10 -1.30181e-11 2.41974e-10)
(-1.53337e-10 -2.26522e-11 2.52811e-10)
(-2.0715e-10 4.96226e-11 5.54373e-10)
(1.14829e-10 3.04122e-12 7.33974e-11)
(-1.99863e-10 4.46541e-11 5.1883e-10)
(1.90629e-10 1.24328e-11 8.70779e-11)
(1.93456e-10 8.19429e-12 8.78525e-11)
(2.19058e-10 -1.45485e-11 9.91346e-11)
(2.47312e-10 -2.67914e-11 1.15299e-10)
(-1.36751e-10 2.59696e-11 3.42298e-10)
(-1.97845e-10 4.90879e-11 4.93525e-10)
(-2.1096e-10 5.35138e-11 5.24439e-10)
(1.68229e-10 -2.55346e-11 8.98415e-11)
(2.81379e-10 4.1901e-11 1.7336e-10)
(1.10237e-10 -1.28691e-11 7.70214e-11)
(-1.10949e-10 6.66309e-11 4.53367e-10)
(8.59364e-11 -8.53908e-12 6.20459e-11)
(-1.89469e-10 8.58645e-11 5.40571e-10)
(8.90181e-11 -3.07154e-12 6.25769e-11)
(2.71982e-10 -1.32682e-11 2.27009e-10)
(2.97833e-10 -4.61538e-11 1.98749e-10)
(1.9481e-10 1.58683e-11 8.44376e-11)
(2.04816e-10 9.33296e-12 8.78645e-11)
(2.33703e-10 -1.41286e-11 9.93274e-11)
(2.51926e-10 -2.79714e-11 1.11169e-10)
(-1.27083e-10 2.09316e-11 2.99928e-10)
(-2.0149e-10 5.65058e-11 4.96907e-10)
(1.79149e-10 -3.13125e-11 9.00432e-11)
(2.71812e-10 4.55295e-11 1.61118e-10)
(-1.05966e-10 -3.63724e-11 2.5152e-10)
(1.45934e-10 -2.22741e-11 9.00337e-11)
(-1.52116e-10 -3.0885e-11 2.53906e-10)
(1.12313e-10 -1.5038e-11 7.63149e-11)
(8.93589e-11 -1.00134e-11 6.4261e-11)
(8.18992e-11 -7.84029e-12 5.97534e-11)
(-1.48606e-10 -2.50867e-11 2.39827e-10)
(-1.35686e-10 -1.27351e-11 2.243e-10)
(1.35698e-10 8.71888e-12 8.0105e-11)
(2.77928e-10 -4.51176e-11 1.88624e-10)
(2.10712e-10 1.92213e-11 8.85967e-11)
(2.15371e-10 1.35342e-11 8.74879e-11)
(2.42867e-10 -1.50666e-11 9.66293e-11)
(2.62724e-10 -2.70577e-11 1.13462e-10)
(-1.22167e-10 2.41993e-11 3.00757e-10)
(2.43692e-10 5.10086e-11 1.36931e-10)
(-9.72848e-11 -3.44799e-11 2.22886e-10)
(-9.75143e-11 -3.25947e-11 2.27929e-10)
(-9.87229e-11 -3.18023e-11 2.20204e-10)
(1.51467e-10 -2.72509e-11 8.82593e-11)
(-1.54739e-10 -2.19775e-11 2.34033e-10)
(-7.51865e-11 1.04318e-11 2.89945e-10)
(1.18032e-10 -1.97485e-11 7.85557e-11)
(1.80063e-10 5.32491e-11 1.67433e-10)
(-1.67648e-10 -1.95445e-11 2.51826e-10)
(-1.55445e-10 -2.44629e-11 2.43546e-10)
(-1.16893e-10 1.36757e-10 4.66563e-10)
(1.43933e-10 2.90355e-13 1.57775e-10)
(-1.99221e-10 9.21134e-11 4.90491e-10)
(1.42618e-10 1.32828e-11 8.40551e-11)
(2.23238e-10 -3.89384e-11 1.63872e-10)
(2.13235e-10 2.24497e-11 8.66345e-11)
(2.29421e-10 1.61592e-11 8.71609e-11)
(2.58499e-10 -1.49771e-11 9.75028e-11)
(2.70871e-10 -2.83888e-11 1.1439e-10)
(-1.15529e-10 2.38421e-11 2.76336e-10)
(2.61583e-10 -1.41769e-11 9.47481e-11)
(2.51862e-10 2.11691e-12 1.02412e-10)
(2.12469e-10 5.19003e-11 1.29937e-10)
(-9.21205e-11 -2.81039e-11 1.89184e-10)
(-7.87882e-11 -2.93605e-11 1.92528e-10)
(-9.11004e-11 -2.70318e-11 1.92548e-10)
(-9.02826e-11 -2.78246e-11 1.88976e-10)
(1.57243e-10 -3.32954e-11 8.62798e-11)
(-1.57652e-10 -9.70843e-12 2.13893e-10)
(2.0112e-10 5.30462e-11 2.06685e-10)
(-5.06262e-11 8.80991e-11 3.34646e-10)
(-1.348e-10 -1.78222e-11 2.14688e-10)
(-1.65654e-10 1.39503e-10 4.83427e-10)
(1.07152e-10 -5.64008e-13 7.77847e-11)
(1.82597e-10 1.84456e-12 2.16937e-10)
(-1.29021e-10 -1.1844e-11 2.10021e-10)
(1.44669e-10 1.31448e-11 8.5027e-11)
(1.90844e-10 -2.6732e-11 1.84209e-10)
(-2.0896e-10 7.97453e-11 4.78189e-10)
(2.28612e-10 2.82393e-11 9.0804e-11)
(2.40572e-10 2.08814e-11 8.76768e-11)
(2.71538e-10 -1.33204e-11 1.00956e-10)
(2.72826e-10 -2.64616e-11 1.21056e-10)
(-1.68959e-10 5.05493e-11 4.49425e-10)
(2.67924e-10 -1.68201e-11 9.46628e-11)
(2.52064e-10 1.40995e-12 9.95586e-11)
(2.0695e-10 4.59388e-11 1.47253e-10)
(-9.95778e-11 -1.85887e-11 1.60323e-10)
(-7.13525e-11 -2.48285e-11 1.60602e-10)
(-8.19478e-11 -2.31732e-11 1.62262e-10)
(1.69918e-10 -4.00705e-11 9.10284e-11)
(2.04989e-10 4.38638e-11 2.35727e-10)
(8.99709e-11 -1.2744e-11 7.03923e-11)
(1.95449e-10 2.86122e-11 2.36629e-10)
(2.37837e-10 3.08186e-11 9.38185e-11)
(2.58187e-10 2.52342e-11 9.99355e-11)
(2.61559e-10 -2.21332e-11 1.41918e-10)
(-1.01132e-10 2.19236e-11 2.4321e-10)
(-1.61493e-10 4.85918e-11 4.56184e-10)
(2.73666e-10 -1.60979e-11 9.91709e-11)
(2.50183e-10 2.61733e-12 1.14802e-10)
(2.07462e-10 4.23442e-11 1.57456e-10)
(-1.03755e-10 -8.2562e-12 1.33932e-10)
(-7.12921e-11 -1.99243e-11 1.42078e-10)
(1.744e-10 -4.76995e-11 8.83648e-11)
(2.03064e-10 5.26778e-11 1.87197e-10)
(-3.53111e-11 1.69394e-11 1.73246e-10)
(-1.65272e-10 4.98093e-12 2.09237e-10)
(9.61537e-11 -2.41789e-11 7.08455e-11)
(-1.58913e-10 5.04193e-13 2.27462e-10)
(-2.83059e-11 2.28265e-10 3.43272e-10)
(1.73653e-10 2.76558e-11 9.46417e-11)
(2.58079e-10 3.48335e-11 1.15135e-10)
(2.81625e-10 2.7059e-11 1.30976e-10)
(2.44324e-10 -1.18649e-11 1.8712e-10)
(-1.58267e-10 4.50606e-11 4.69041e-10)
(2.73974e-10 -2.19826e-11 1.20612e-10)
(2.33219e-10 -5.83458e-12 1.20386e-10)
(2.06973e-10 1.17018e-11 1.28827e-10)
(1.90883e-10 4.29577e-11 1.4867e-10)
(-1.19617e-10 4.61428e-12 1.11699e-10)
(-4.20618e-11 -7.447e-12 1.41104e-10)
(1.94227e-10 5.59412e-11 1.78296e-10)
(-1.54806e-10 1.59384e-11 1.52971e-10)
(9.08929e-11 1.04096e-10 1.19054e-10)
(-1.65692e-10 -1.3691e-12 2.46876e-10)
(-1.23259e-10 3.23354e-10 4.63575e-10)
(1.24637e-10 4.70629e-12 9.19631e-11)
(-2.64965e-10 2.47986e-10 6.44506e-10)
(1.97456e-10 3.04837e-11 1.18136e-10)
(-1.42875e-10 -5.59072e-13 2.38911e-10)
(3.05288e-10 3.87254e-11 1.85593e-10)
(3.07088e-10 4.21285e-11 1.99206e-10)
(2.42672e-10 -4.54368e-12 2.19475e-10)
(-1.14015e-10 1.70299e-11 2.45749e-10)
(-1.41456e-10 2.76217e-11 4.96688e-10)
(2.71028e-10 -4.7216e-11 1.09209e-10)
(2.42298e-10 -2.36061e-11 1.06325e-10)
(2.00292e-10 -5.32584e-12 1.07898e-10)
(1.76896e-10 1.23314e-11 1.04311e-10)
(1.69374e-10 4.53603e-11 1.27725e-10)
(2.16221e-10 -1.8991e-11 3.45072e-10)
(-1.86037e-10 2.38242e-11 1.59162e-10)
(1.45717e-10 -5.2882e-11 8.73675e-11)
(2.33715e-10 2.84208e-10 -1.49497e-11)