/*--------------------------------*- C++ -*----------------------------------*\
  =========                 |
  \\      /  F ield         | OpenFOAM: The Open Source CFD Toolbox
   \\    /   O peration     | Website:  https://openfoam.org
    \\  /    A nd           | Version:  7
     \\/     M anipulation  |
\*---------------------------------------------------------------------------*/
FoamFile
{
    version     2.0;
    format      ascii;
    class       volScalarField;
    location    "8.5";
    object      p;
}
// * * * * * * * * * * * * * * * * * * * * * * * * * * * * * * * * * * * * * //

dimensions      [0 2 -2 0 0 0 0];

internalField   nonuniform List<scalar> 
382612
(
0.00208042
0.00183676
0.00199642
0.00199929
0.00173947
0.00220769
0.00212207
0.0020155
0.0018452
0.0016836
0.00187995
0.00186767
0.00181132
0.00183847
0.00195213
0.00207265
0.00184867
0.00198865
0.00202111
0.00204098
0.00205983
0.00208418
0.00210848
0.00211704
0.00209837
0.00207514
0.00205223
0.00245698
0.00250093
0.00253806
0.00256892
0.00235973
0.00235341
0.00234475
0.0023291
0.00224403
0.00195656
0.00204367
0.00210406
0.00213449
0.0021593
0.00218123
0.00209607
0.00208044
0.00205971
0.00203334
0.00195023
0.00196431
0.00198431
0.00200074
0.00216
0.00214452
0.00212584
0.00210563
0.00207993
0.00192175
0.00197384
0.0020566
0.00211818
0.00200758
0.00208001
0.00195403
0.00197075
0.0026125
0.00201694
0.00186389
0.00212563
0.00232975
0.00243079
0.00256028
0.00257744
0.00257969
0.00258077
0.00271611
0.0027067
0.00269421
0.00266996
0.00256601
0.0023669
0.00246781
0.00250722
0.00253383
0.00255258
0.00288303
0.00289022
0.00289858
0.00288343
0.0027335
0.00211925
0.00224303
0.00227339
0.00228811
0.00229784
0.00247293
0.00248712
0.00250455
0.00250635
0.00244032
0.00201333
0.00208263
0.0021033
0.0021162
0.00213003
0.00214577
0.00202138
0.00201434
0.00200615
0.00200303
0.00181317
0.00184182
0.00186269
0.00187773
0.00212791
0.0021099
0.00208965
0.00206934
0.00204249
0.00170322
0.00182153
0.00185335
0.00186785
0.00187645
0.00203852
0.00202089
0.00200153
0.00197918
0.00191282
0.00165959
0.00184352
0.00197075
0.00199304
0.00200159
0.00200437
0.00221206
0.00222082
0.00223304
0.00224592
0.00235974
0.0023389
0.00220804
0.00217674
0.00215771
0.0021441
0.00189668
0.00188694
0.0018755
0.00186973
0.00198666
0.00199936
0.00201025
0.0020172
0.00201015
0.00200699
0.00200049
0.00199574
0.0020378
0.00195748
0.00188832
0.00188813
0.00189461
0.00189896
0.00183157
0.00198495
0.00202186
0.00170931
0.00187378
0.0018165
0.00209953
0.00230766
0.00178081
0.00180213
0.00213767
0.00174338
0.0018185
0.00179705
0.00172858
0.0017252
0.00173391
0.00173945
0.00224101
0.00225157
0.00226908
0.00229215
0.0022928
0.00196732
0.0019278
0.00191759
0.00191688
0.00191813
0.0022348
0.00224948
0.00227321
0.00230279
0.00233151
0.0020048
0.00211318
0.00212078
0.00211951
0.0021147
0.00211154
0.00193255
0.00193262
0.00193486
0.00194665
0.00165065
0.00165341
0.0016603
0.00166309
0.00198203
0.00198272
0.00198295
0.0019857
0.0020224
0.00167638
0.0016666
0.00202636
0.00192487
0.00161252
0.00184347
0.00198206
0.00169549
0.00197303
0.00193967
0.00166185
0.00159013
0.00190089
0.00190872
0.00175416
0.00157712
0.00181031
0.00195063
0.00200776
0.00198058
0.00197144
0.00183676
0.00166929
0.00200659
0.00193139
0.00199362
0.00202573
0.00194435
0.00199282
0.00211543
0.00209071
0.00189374
0.00193872
0.00197533
0.00198591
0.00199901
0.00201284
0.00216165
0.0021594
0.00215112
0.00211112
0.00237474
0.00235042
0.00233194
0.00231493
0.00273155
0.00272149
0.00271208
0.00268881
0.00255582
0.00247724
0.00241428
0.00241854
0.00242998
0.00243327
0.00243909
0.00210341
0.00210554
0.0021009
0.00208735
0.00209528
0.00255533
0.00251812
0.00252077
0.00253005
0.00253824
0.00236496
0.00235143
0.00232968
0.0023127
0.00233687
0.00254958
0.00250329
0.00250256
0.00251627
0.0025276
0.0027268
0.00272728
0.00272719
0.00271819
0.00264794
0.0025638
0.00268716
0.00271647
0.00272903
0.00273632
0.0031532
0.00315944
0.00316751
0.00314993
0.00298008
0.00221144
0.00223627
0.0022515
0.00227359
0.00229163
0.00236586
0.00235821
0.00234789
0.00232716
0.00223002
0.00205008
0.00212712
0.00215943
0.00218302
0.00219873
0.00253422
0.00254862
0.00257213
0.00258328
0.00250151
0.00185428
0.00185116
0.00185671
0.00187322
0.00188892
0.00196056
0.00195926
0.00197108
0.00198534
0.00199499
0.00193934
0.00192474
0.00190646
0.00189628
0.00188641
0.00243591
0.0024377
0.00241652
0.00239054
0.00237223
0.00187482
0.00186588
0.00185535
0.00185742
0.00189849
0.0023779
0.00232764
0.00229642
0.00227165
0.00225603
0.00174856
0.00174417
0.00173962
0.00175382
0.00185199
0.00205294
0.0019899
0.00198099
0.00198522
0.00199014
0.00222318
0.0022357
0.00225489
0.00228117
0.00233004
0.00195552
0.00186455
0.00185264
0.00185933
0.00186572
0.00218904
0.00219969
0.00221511
0.00223234
0.00224094
0.00201093
0.00204359
0.00204576
0.00204667
0.00204366
0.00204079
0.00196643
0.00196562
0.00196522
0.00197055
0.00181233
0.00180975
0.00181137
0.00181229
0.00198307
0.00198643
0.00198945
0.00199164
0.00199979
0.00183166
0.00208612
0.00203211
0.00201952
0.00201563
0.00201289
0.00196456
0.00213298
0.00220692
0.00215859
0.00214348
0.00213544
0.00212996
0.00199227
0.00199185
0.00199094
0.00199028
0.00203892
0.00203668
0.002033
0.0020302
0.00205504
0.00205628
0.00205834
0.00205976
0.00204359
0.00204522
0.00204931
0.00205228
0.00222413
0.00222842
0.00223286
0.00223628
0.00225625
0.00205948
0.00206231
0.00208927
0.00215735
0.00201285
0.00205892
0.00201927
0.00190721
0.00178915
0.00197863
0.00198161
0.00182265
0.00215161
0.0021075
0.00208016
0.00212263
0.0019995
0.00204138
0.00211309
0.00219403
0.00219128
0.00229071
0.00227909
0.00224489
0.00223913
0.00224047
0.00224253
0.00232827
0.00232532
0.00232117
0.0023164
0.00231456
0.00236568
0.0023734
0.00237572
0.00237828
0.00238142
0.00231069
0.00231096
0.00231064
0.00230721
0.00230261
0.00213279
0.00207535
0.00208376
0.00208607
0.00208574
0.00208569
0.00214741
0.00214046
0.00213165
0.00212627
0.00207885
0.00208306
0.00208821
0.00209208
0.00205873
0.00205968
0.00206107
0.00206056
0.00205626
0.00207865
0.00227121
0.00225811
0.00225884
0.002258
0.00225597
0.0022716
0.00235279
0.00230141
0.0022885
0.00229377
0.00230203
0.0023081
0.00251725
0.00251636
0.0025135
0.00250148
0.00246151
0.00248918
0.00251418
0.00252415
0.00253058
0.00253519
0.0024477
0.00244175
0.00243404
0.0024258
0.0024205
0.00234691
0.0023771
0.0023908
0.0023969
0.0024008
0.00220604
0.00219507
0.00218201
0.00217523
0.00212787
0.00213229
0.00213328
0.00213446
0.00216834
0.00216644
0.00216439
0.00216011
0.00221735
0.00221936
0.00222535
0.0022306
0.00245729
0.00244631
0.0024321
0.00241419
0.00238154
0.00221954
0.00214181
0.00212814
0.00224319
0.00216796
0.00211581
0.00208461
0.00214928
0.00201424
0.00203631
0.00208735
0.00213745
0.00218418
0.00209476
0.00210949
0.00221952
0.00217861
0.00211062
0.00229303
0.00236741
0.00245875
0.00249595
0.0024446
0.00245155
0.0024601
0.00246931
0.00247591
0.0025885
0.00258167
0.00257152
0.00255615
0.00252559
0.00255286
0.00258376
0.00259607
0.00260322
0.00260774
0.0025168
0.00251283
0.00250649
0.00249568
0.0024822
0.00246866
0.00247946
0.00248597
0.00248931
0.00249126
0.0024268
0.00241663
0.00240319
0.0023877
0.00235534
0.00222218
0.00224378
0.00224335
0.00224071
0.00223864
0.00231291
0.00230409
0.00229359
0.00227885
0.00223217
0.00215474
0.00210376
0.00211354
0.00211784
0.00211806
0.00211756
0.00214056
0.00213688
0.00213277
0.00213513
0.00218303
0.00218796
0.00219457
0.00219971
0.00213438
0.00213332
0.00213259
0.00213138
0.00212243
0.00217782
0.00215994
0.00210101
0.00210137
0.00214672
0.00210772
0.00207731
0.00208586
0.00212217
0.00221863
0.00212871
0.00205514
0.00206744
0.00213915
0.00207165
0.0023127
0.00263345
0.00220838
0.00210609
0.00232536
0.00247375
0.00256095
0.00257734
0.00255666
0.00253727
0.00245208
0.00248686
0.00250201
0.00250918
0.00251325
0.00258892
0.00258378
0.0025774
0.0025681
0.00253896
0.00254767
0.00257898
0.00258851
0.00259467
0.00259943
0.00255206
0.00254401
0.00253332
0.00252221
0.002509
0.00254762
0.00257869
0.00259012
0.00259705
0.00260187
0.00255642
0.00255369
0.00254761
0.00253333
0.00249516
0.00237727
0.0023727
0.00237745
0.00238483
0.00239088
0.00244836
0.0024464
0.00244385
0.00243756
0.0024138
0.0022991
0.00229736
0.00230232
0.00230779
0.00231143
0.00218955
0.00218557
0.00218068
0.00217655
0.00217227
0.00211134
0.00208793
0.00209576
0.00209877
0.0020986
0.00209684
0.00211891
0.00211543
0.00211073
0.00210767
0.00209613
0.00209759
0.0021007
0.00210414
0.00207014
0.00207039
0.00206867
0.00206399
0.00206187
0.0021029
0.00219055
0.00218372
0.0021876
0.00219281
0.00219715
0.0021439
0.00213984
0.0021346
0.00213082
0.00213445
0.00205917
0.00204549
0.00205654
0.00206014
0.0020617
0.0020636
0.0020825
0.00207721
0.00207079
0.00206557
0.00208651
0.00208708
0.00208825
0.00208933
0.00208383
0.00208172
0.00208156
0.00208109
0.00207374
0.00208518
0.00207972
0.00205262
0.00207326
0.00207037
0.00200788
0.00201721
0.00210166
0.00212906
0.00215258
0.00209143
0.00206497
0.00203746
0.00208262
0.00207025
0.00197606
0.00187613
0.00210737
0.00207344
0.00213508
0.00217856
0.00231058
0.00217261
0.00218193
0.00233898
0.0021003
0.00206431
0.00213778
0.00227893
0.00220051
0.00211463
0.00210189
0.00223391
0.00227766
0.00213671
0.00209049
0.00209885
0.0023379
0.00232992
0.00238261
0.00238802
0.00239525
0.00238454
0.00238253
0.00238335
0.0023847
0.00238056
0.00237892
0.00237789
0.00237918
0.00237728
0.00246482
0.0024842
0.00248932
0.00249333
0.00249675
0.00241633
0.0024141
0.00240939
0.0023981
0.00237274
0.00230918
0.00230557
0.00230579
0.00230878
0.00231225
0.00241598
0.00241101
0.0024053
0.00239774
0.00237403
0.00239074
0.00241579
0.00242489
0.00243217
0.00243825
0.00252861
0.00252397
0.00251679
0.00250074
0.00245963
0.00237552
0.00239457
0.00240762
0.00241564
0.00242043
0.00250685
0.00250149
0.00249536
0.00248924
0.00247143
0.00246675
0.00247574
0.00248032
0.00248438
0.00248752
0.00240283
0.00240058
0.00239885
0.00239752
0.00238537
0.00233716
0.00232743
0.00232472
0.00232599
0.00232764
0.00223909
0.00223415
0.00222815
0.00222597
0.00223956
0.00225949
0.00227515
0.00227801
0.00227774
0.00227782
0.00216695
0.00216907
0.00217082
0.00217104
0.00216398
0.00216282
0.00217763
0.00217742
0.00217389
0.00217055
0.00204601
0.00204195
0.00203748
0.00203673
0.00206703
0.00207215
0.00207503
0.00207762
0.00206745
0.00206355
0.00205869
0.00205148
0.00204349
0.00204425
0.00204213
0.00204686
0.002052
0.00205576
0.00207456
0.00207518
0.00207538
0.00207561
0.00207549
0.00205742
0.00205407
0.00205332
0.00205329
0.00205307
0.00201641
0.00201265
0.00200752
0.00200369
0.00202197
0.00202665
0.00203051
0.00203439
0.00210498
0.00210125
0.0020994
0.00209717
0.0020692
0.0020666
0.00206849
0.00207113
0.00209497
0.0020992
0.00210515
0.00211165
0.00211713
0.00208095
0.00209116
0.00207236
0.00204783
0.00189004
0.00197126
0.00209387
0.00204313
0.00199912
0.00204206
0.00208206
0.00208421
0.00180988
0.0019637
0.00195263
0.00177222
0.00186334
0.00194489
0.00200248
0.00196095
0.00207863
0.00205373
0.0021053
0.00219339
0.00231247
0.0021463
0.00210213
0.00216894
0.00217041
0.00212124
0.00201237
0.0019956
0.00194783
0.00221522
0.00245355
0.00262086
0.00269404
0.00265834
0.00251959
0.0023162
0.00208738
0.00187792
0.0017435
0.00179236
0.00180514
0.00180425
0.00180127
0.00192605
0.00191888
0.00191108
0.00190645
0.00190123
0.00211394
0.00218011
0.00219647
0.00219769
0.00219635
0.00227978
0.00227108
0.00226107
0.00225394
0.00223732
0.00217601
0.00222678
0.00223939
0.00224463
0.00224813
0.0022148
0.00221355
0.00220902
0.00219592
0.00214998
0.00233423
0.00234392
0.00234802
0.0023559
0.00236326
0.00229837
0.00229787
0.00229422
0.00228014
0.00223286
0.00215756
0.0021659
0.00217134
0.00217498
0.00217653
0.00231541
0.00231152
0.00230858
0.00231019
0.0023155
0.00228547
0.0022791
0.00228418
0.00229046
0.00229504
0.00228864
0.00228705
0.00228323
0.00227582
0.00226938
0.00222217
0.0022395
0.00224599
0.00224752
0.00224743
0.00215553
0.00215314
0.00215024
0.00214971
0.00215538
0.00222191
0.00221076
0.00220451
0.00220114
0.00219967
0.00211427
0.00210967
0.00210493
0.00210677
0.00213435
0.00210372
0.0020911
0.00209309
0.00209725
0.00210008
0.00212322
0.00212796
0.00213571
0.00214506
0.00214761
0.00202625
0.00201324
0.00201522
0.002018
0.0020196
0.00198661
0.00198435
0.0019809
0.00197932
0.00199375
0.0020059
0.00200106
0.00200145
0.00200183
0.00200102
0.00203807
0.00203428
0.00202898
0.00202468
0.00202533
0.00197428
0.00200221
0.0020113
0.00202145
0.00203137
0.00203982
0.00201456
0.00200723
0.00199637
0.00198421
0.00200523
0.00200616
0.00200848
0.00201025
0.0020461
0.00204404
0.00204195
0.00203777
0.00202911
0.002015
0.00205972
0.00208345
0.00207429
0.0020179
0.00192257
0.00202766
0.00197885
0.00184546
0.00199679
0.00202855
0.00187871
0.00167547
0.00176825
0.00195109
0.00185822
0.00164838
0.00181579
0.00188205
0.0019287
0.0019151
0.00194332
0.00196755
0.00200272
0.00195395
0.00162895
0.00184087
0.00184996
0.00163889
0.00161961
0.00166935
0.00173456
0.00190119
0.00207065
0.00219528
0.00224413
0.00219342
0.00204889
0.0018342
0.00159499
0.00137129
0.0012653
0.00131662
0.00132405
0.00131939
0.00131396
0.00143368
0.00142731
0.00142111
0.00141808
0.00141031
0.00169525
0.00174696
0.0017575
0.00175487
0.00174999
0.00187861
0.0018707
0.00186206
0.00185835
0.00185678
0.00203846
0.00204662
0.00205129
0.00205677
0.00206096
0.00196012
0.00195498
0.00195071
0.00195358
0.00195706
0.00211689
0.00209638
0.00209211
0.00209572
0.00210006
0.00202438
0.00202218
0.00202301
0.00203216
0.00203939
0.00213983
0.00210787
0.00209543
0.00209399
0.00209516
0.00209984
0.0020983
0.00209577
0.00209496
0.0021081
0.00224509
0.00224426
0.00223814
0.0022358
0.00223626
0.00218558
0.00218492
0.00218556
0.00219374
0.00222627
0.00214981
0.00214909
0.00214115
0.00213755
0.00213644
0.00212428
0.00212611
0.00213045
0.0021405
0.00215601
0.00208437
0.00207214
0.00207069
0.00207232
0.00207383
0.0021281
0.00212787
0.00212709
0.00212492
0.0021183
0.00215315
0.0021147
0.002167
0.00216147
0.0020915
0.00208818
0.00209139
0.00209391
0.00209461
0.0020305
0.00202885
0.0020276
0.00203167
0.00205528
0.00200506
0.00200059
0.00200341
0.00200409
0.00200371
0.00199396
0.00199256
0.00199016
0.00198778
0.00199639
0.0019938
0.00199809
0.00199923
0.00199897
0.00199856
0.00195677
0.00195744
0.00195853
0.00196281
0.00198317
0.0021441
0.00213843
0.00212365
0.00211269
0.00210664
0.00208075
0.00208402
0.00209084
0.00210732
0.00215867
0.00206537
0.002081
0.00207321
0.00207053
0.00206918
0.00207017
0.00201587
0.00201753
0.00202128
0.00203332
0.00195312
0.00196386
0.00196942
0.00197278
0.00210013
0.00209689
0.00209301
0.0020833
0.00205611
0.0019291
0.00198976
0.00212334
0.00202317
0.00192506
0.00191183
0.0020927
0.00193627
0.00192785
0.00195928
0.00197005
0.00197185
0.00197105
0.00188223
0.00188175
0.00188009
0.00187895
0.0018867
0.00194516
0.00197943
0.00198283
0.00198111
0.00197879
0.00201938
0.00202666
0.00203304
0.00202813
0.00197118
0.00196261
0.00200973
0.00203269
0.00203953
0.00204442
0.00205064
0.00201123
0.00201373
0.00201442
0.00200681
0.00194126
0.00194902
0.00195862
0.00196509
0.00206718
0.00206058
0.00205246
0.00204063
0.00202361
0.00195703
0.00205316
0.00206172
0.00203265
0.00195613
0.0017676
0.00194206
0.00190312
0.00166358
0.00162476
0.00184888
0.00178489
0.00155201
0.00180286
0.0018759
0.00194122
0.00198186
0.00183556
0.00185207
0.00190113
0.00187542
0.00184152
0.00193185
0.00199068
0.00192294
0.00205656
0.00204843
0.00198683
0.00193297
0.00189015
0.0020042
0.00193345
0.00176939
0.00202938
0.0020516
0.00205258
0.00207731
0.0020366
0.00203427
0.00201002
0.0020443
0.00169714
0.00185619
0.00190615
0.00168921
0.00177655
0.00192304
0.00196669
0.00199587
0.00188092
0.00195214
0.00189765
0.00178049
0.00174996
0.00188862
0.00192432
0.0017095
0.00179188
0.00195407
0.00196324
0.00177171
0.00186842
0.00199078
0.002002
0.00190256
0.00179206
0.00198924
0.00194903
0.00171154
0.00195663
0.00194543
0.00191668
0.00187013
0.00179199
0.00178225
0.00178535
0.00178706
0.00201292
0.00201342
0.00201427
0.0020219
0.00206973
0.00228716
0.00223409
0.00221471
0.00220487
0.00219998
0.0020024
0.00199739
0.00199237
0.00200102
0.00207528
0.00224797
0.00222205
0.00220859
0.00220222
0.00219946
0.00215678
0.0021536
0.0021506
0.00215546
0.00220323
0.00213455
0.00211578
0.00200089
0.00195635
0.00190623
0.00189882
0.00190035
0.00190117
0.00209099
0.00209281
0.00209367
0.0020932
0.00211076
0.00228226
0.00224878
0.00223543
0.00223164
0.00223087
0.0021513
0.00214718
0.00214235
0.00214483
0.00218558
0.00232327
0.00231873
0.00231278
0.00231009
0.00230897
0.00223066
0.00223059
0.00223041
0.00223341
0.00226122
0.00225781
0.00223751
0.0021552
0.00210243
0.00202348
0.00199034
0.00198811
0.00198986
0.00199102
0.00216944
0.0021699
0.00217307
0.00218422
0.00219939
0.00226744
0.00226141
0.00225533
0.00225461
0.00225586
0.00228864
0.00228671
0.00228343
0.00227866
0.00227872
0.00231111
0.00232112
0.00232586
0.00232613
0.00232547
0.00234073
0.00244671
0.00240921
0.00229092
0.00212756
0.00202119
0.00204577
0.00205437
0.00205386
0.00205137
0.00218849
0.00218372
0.00218101
0.00218504
0.00219118
0.00222963
0.00224532
0.00225076
0.00225777
0.00226464
0.00214961
0.00215282
0.00215314
0.00213941
0.00208906
0.00189132
0.00187117
0.00186996
0.0018764
0.00188262
0.00174122
0.0017455
0.00174838
0.0017398
0.00171292
0.0014757
0.00146493
0.00145876
0.00145917
0.00146129
0.00146405
0.00146044
0.00145694
0.00145787
0.00146488
0.00121416
0.00120914
0.00121133
0.00121773
0.00122381
0.00118734
0.00118696
0.00118807
0.00119037
0.00118719
0.00101816
0.00100606
0.00100736
0.00100965
0.00101179
0.000927158
0.000921872
0.000918899
0.000923083
0.000948584
0.00117595
0.00119107
0.00119354
0.00118792
0.00118101
0.00132083
0.00131555
0.00131096
0.00131423
0.00133578
0.00155536
0.00153894
0.00153765
0.00154178
0.0015466
0.00173317
0.00173833
0.00174279
0.00173869
0.00171205
0.00182158
0.0018464
0.00185278
0.00185307
0.00185284
0.00176238
0.0017651
0.00176634
0.00176303
0.00176979
0.00184204
0.00182047
0.00182186
0.00182635
0.00183027
0.00194122
0.00194163
0.00194149
0.00193815
0.00192969
0.00191625
0.00189653
0.00189384
0.00189373
0.0018929
0.00210649
0.00210825
0.00211446
0.00212443
0.00213328
0.00188516
0.00186095
0.00186064
0.00186409
0.00186621
0.00192534
0.00192606
0.00192688
0.00192616
0.00192237
0.00192346
0.001898
0.00189295
0.00189196
0.00189158
0.00203785
0.00204292
0.00205296
0.00206995
0.00208297
0.00209892
0.00206612
0.00205307
0.00204744
0.0020448
0.00185149
0.00184891
0.00184491
0.00184179
0.00185356
0.00187732
0.00186435
0.00186551
0.00186751
0.00186848
0.0021085
0.00211834
0.00213548
0.00215943
0.00216296
0.00222402
0.0022405
0.0022214
0.00220477
0.00219485
0.00220901
0.00221163
0.00221842
0.00223106
0.00223004
0.00231374
0.00230067
0.00230003
0.00229939
0.00230097
0.00207864
0.00207424
0.00206807
0.00206375
0.00206499
0.00193167
0.00194419
0.00198582
0.00200307
0.00201869
0.00203161
0.00206701
0.00206414
0.00205858
0.00203572
0.00215595
0.00215556
0.00215595
0.00215742
0.00213856
0.00213028
0.00212437
0.00212234
0.00213757
0.00214621
0.00205925
0.00210748
0.00198623
0.00188453
0.00213483
0.00207373
0.00201674
0.00194527
0.00179614
0.00191648
0.00190106
0.00180728
0.00185403
0.001844
0.00193524
0.00196506
0.00191056
0.00195264
0.0019779
0.00191865
0.00183498
0.00194791
0.00191378
0.0017721
0.00180774
0.00190053
0.00185608
0.00180109
0.00191159
0.00163749
0.00145534
0.00129811
0.00121576
0.00119403
0.00118946
0.00116446
0.00111022
0.00104277
0.000966156
0.000884222
0.000794295
0.000700691
0.000604164
0.000688322
0.000677145
0.00067625
0.000678359
0.000680167
0.000812635
0.00082366
0.000835612
0.000842563
0.000837916
0.000896138
0.000897975
0.000895482
0.000890201
0.000885198
0.000837529
0.000847383
0.000857416
0.000863217
0.000873218
0.0011063
0.00106085
0.00104944
0.00105034
0.00105413
0.00120001
0.00120841
0.00121587
0.00121552
0.00121735
0.00149705
0.0014742
0.00146215
0.00146108
0.00146211
0.00166057
0.00165893
0.00166124
0.00167543
0.00171473
0.00155079
0.00155657
0.00155686
0.00155552
0.00155352
0.00151317
0.00151732
0.00151987
0.00152148
0.00154332
0.00186834
0.00184712
0.00182942
0.00182286
0.00182131
0.00189257
0.0018933
0.00189771
0.00191478
0.00197144
0.00167884
0.00168594
0.00168707
0.00168666
0.00168592
0.0017125
0.00171459
0.00171734
0.00172228
0.00174325
0.0019763
0.00197381
0.00195707
0.00194637
0.0019412
0.00192154
0.00192428
0.00193099
0.0019479
0.00199484
0.00171928
0.00171203
0.00171331
0.00171558
0.00171625
0.0017859
0.0017866
0.0017873
0.00178672
0.00178554
0.00186233
0.00184005
0.00183366
0.00183051
0.00182848
0.00205211
0.00206246
0.00207929
0.00209921
0.00209327
0.00177044
0.00177553
0.00178233
0.0017857
0.00178718
0.00183058
0.0018274
0.00181986
0.00180472
0.00178637
0.00180568
0.00182452
0.00184285
0.00185495
0.00186143
0.00195599
0.00194886
0.00193658
0.00191494
0.00188002
0.00178848
0.00183494
0.0018586
0.00187041
0.00187638
0.00213687
0.0021315
0.00212282
0.00210055
0.0020262
0.00219531
0.00223121
0.00223081
0.00222801
0.00222746
0.00210748
0.00211108
0.00211398
0.00210753
0.00203364
0.00204141
0.00205363
0.00206534
0.00212616
0.0021104
0.00209299
0.00207761
0.00208568
0.002101
0.00210489
0.00210583
0.00234059
0.00233695
0.00233299
0.00231659
0.0022115
0.00200346
0.0020675
0.00206182
0.00191284
0.00188793
0.00206829
0.00205951
0.00188078
0.00195088
0.00211283
0.0021448
0.0021586
0.00216529
0.00217211
0.00204731
0.0020359
0.00201722
0.00199609
0.00228588
0.00230961
0.00231002
0.00231028
0.00219349
0.00218806
0.00217948
0.00216363
0.00214129
0.00229781
0.00229377
0.00229446
0.00228773
0.00228385
0.00230111
0.00229654
0.00229097
0.00227929
0.00233718
0.00204221
0.00205928
0.00206278
0.0020676
0.0020753
0.00208271
0.00217011
0.00217156
0.00217154
0.0021556
0.00206625
0.00209271
0.00210295
0.00211046
0.00205349
0.00204502
0.00203562
0.00202535
0.00199479
0.00190142
0.0018363
0.00205673
0.00199621
0.00200905
0.00200913
0.00193082
0.00191659
0.00191097
0.00207546
0.00199378
0.00189969
0.00191742
0.00197381
0.00189416
0.00196267
0.00194385
0.00191721
0.00164491
0.00127957
0.000907852
0.00064099
0.000541481
0.000601002
0.000734062
0.000837182
0.000846293
0.000763088
0.000633832
0.000552275
0.000483549
0.000450531
0.000393607
0.000416395
0.000402324
0.000394984
0.000388197
0.000382643
0.000450591
0.000451629
0.000455291
0.000466124
0.000500227
0.000544576
0.000532412
0.000526039
0.000517402
0.000508663
0.00065483
0.000657381
0.00066367
0.000679701
0.000707777
0.000909313
0.000865218
0.000844587
0.000835828
0.000831613
0.000945019
0.000952571
0.000958724
0.000960946
0.000973754
0.00130813
0.00127238
0.00125248
0.0012463
0.00124602
0.00144595
0.00144858
0.00145541
0.00147703
0.0015478
0.00129039
0.0012976
0.00129764
0.00129666
0.00129611
0.00132944
0.0013338
0.00133711
0.00134046
0.00136348
0.00173372
0.0017158
0.00169408
0.00168077
0.00167486
0.00173678
0.00173947
0.00174639
0.0017655
0.00182495
0.00146336
0.00147334
0.00147532
0.00147569
0.00147499
0.0015774
0.00158027
0.00158393
0.0015895
0.00160736
0.00186232
0.00186188
0.00184249
0.00182735
0.00181945
0.00183974
0.00184715
0.00186154
0.00188408
0.00189586
0.00197975
0.00195018
0.00193031
0.00191877
0.00191302
0.00161855
0.00161687
0.00161063
0.00159793
0.00158952
0.00166797
0.00167607
0.00168633
0.00169286
0.00169541
0.00181956
0.00181671
0.00181289
0.00180843
0.00179385
0.00190578
0.00193345
0.00193875
0.00194003
0.00194057
0.00206256
0.00206192
0.00206028
0.0020536
0.00202041
0.00199839
0.00202685
0.00203312
0.00203511
0.00203528
0.00207266
0.00206424
0.00204991
0.00202526
0.0019801
0.00205672
0.00206213
0.00207231
0.00208063
0.00208569
0.00222886
0.00223394
0.0022414
0.00224183
0.00218608
0.00209337
0.00218347
0.00219323
0.00219144
0.00218959
0.00210151
0.00209729
0.00209122
0.00208196
0.00203186
0.0021429
0.00214703
0.00214385
0.00214234
0.00214508
0.00212577
0.0019849
0.00200819
0.00197218
0.00206585
0.0022
0.00183557
0.00200585
0.00221385
0.00186373
0.00220452
0.0029312
0.00205666
0.00218659
0.0022715
0.0025575
0.00202435
0.00164841
0.00114346
0.00071916
0.00043938
0.000376086
0.000472784
0.000623478
0.000720847
0.000703274
0.000602054
0.000485849
0.000396835
0.000366695
0.000327452
0.00042889
0.000432922
0.000429728
0.000426357
0.000424344
0.000326704
0.000333214
0.000337566
0.000338185
0.000344226
0.000589942
0.000582277
0.000564698
0.000550251
0.000541292
0.000782485
0.000791953
0.000804432
0.000816508
0.000833788
0.000770033
0.000753177
0.000750994
0.000746845
0.000741404
0.00113663
0.00114737
0.00116655
0.00119508
0.00122393
0.00138661
0.00135272
0.00133676
0.00132473
0.00131661
0.00125103
0.00125463
0.00125813
0.00126229
0.00128283
0.00166394
0.00164285
0.00161687
0.00159976
0.00159079
0.00166127
0.00166715
0.0016768
0.00169048
0.00170998
0.00133945
0.00132668
0.00133059
0.00133592
0.0013391
0.00146453
0.00146438
0.00146405
0.00146446
0.00147643
0.00155564
0.0015592
0.001558
0.001555
0.00155244
0.00164756
0.00165584
0.00166468
0.00166411
0.00162929
0.00169075
0.00172572
0.00172239
0.00171073
0.00169932
0.00192874
0.00193621
0.0019476
0.00195114
0.00189852
0.00191536
0.00194501
0.0019486
0.00194964
0.00194966
0.00197191
0.0019706
0.00196616
0.00195515
0.00190734
0.00204852
0.00209398
0.00210634
0.00211238
0.00211606
0.00220051
0.00220182
0.0022029
0.00219831
0.00215643
0.0022259
0.00224692
0.00225203
0.00225715
0.00226136
0.00234149
0.00234731
0.00235578
0.0023518
0.00226694
0.00207789
0.0020457
0.00205613
0.0020769
0.00209185
0.00239008
0.00238633
0.00238112
0.0023726
0.00232741
0.00228457
0.00226913
0.00226891
0.00227346
0.0022768
0.00225033
0.00225621
0.00226313
0.00225577
0.00218074
0.00202718
0.00214107
0.00215107
0.00214421
0.00213744
0.00226963
0.00227605
0.00228727
0.00228152
0.00215025
0.00189664
0.00192238
0.00193447
0.00194284
0.0019479
0.00208816
0.00209199
0.0020943
0.00208464
0.00204533
0.00204274
0.00194393
0.00193697
0.00204462
0.00206049
0.00192675
0.00198434
0.00199454
0.00199846
0.00199986
0.00206829
0.0020699
0.00207184
0.0020705
0.00201218
0.001978
0.00200464
0.00195359
0.00192049
0.0019119
0.00194543
0.00196141
0.00196644
0.00190611
0.00196169
0.00199798
0.00197586
0.00197668
0.0021882
0.00207065
0.00201892
0.00207123
0.00201995
0.00199498
0.00195725
0.00187819
0.00190499
0.00197145
0.00202051
0.0020249
0.00206628
0.00204381
0.00200301
0.00198788
0.00197635
0.00198564
0.00204389
0.00210235
0.0020516
0.00202332
0.00198329
0.00193683
0.00191971
0.00198321
0.00201404
0.00200659
0.00196037
0.0019867
0.00198839
0.00194164
0.00193657
0.00197858
0.00194957
0.0019228
0.00191361
0.00195136
0.00194691
0.00188357
0.00188368
0.0019736
0.00191824
0.00186148
0.00193034
0.00194235
0.00197891
0.00201828
0.00199289
0.00196173
0.00193573
0.00196383
0.00198754
0.0019287
0.00195394
0.00200015
0.00194884
0.00195607
0.00194311
0.00195229
0.00204703
0.00196164
0.00198255
0.00207995
0.00187535
0.00184547
0.00166362
0.00144523
0.00117886
0.000923964
0.000835217
0.000878809
0.00117183
0.00126448
0.00153553
0.00166619
0.00168833
0.00169973
0.00170829
0.0019964
0.00201167
0.00202886
0.00203768
0.00201111
0.00146161
0.00150869
0.00151666
0.00151714
0.00151398
0.00213672
0.00215658
0.0021821
0.00219605
0.00218166
0.00159601
0.00154777
0.00154276
0.00154561
0.00154624
0.00217557
0.00219546
0.00222519
0.00225709
0.00224954
0.00225193
0.00229948
0.00229937
0.00228731
0.00227609
0.00167982
0.00168175
0.00167972
0.00167462
0.00166341
0.00163811
0.00166557
0.00166219
0.00165864
0.00165562
0.00203104
0.00204014
0.00205308
0.00207413
0.00215688
0.00169707
0.00164149
0.00163656
0.0016387
0.00163797
0.00178295
0.00178501
0.00178839
0.00179817
0.00184279
0.00220023
0.00211543
0.00208769
0.00207565
0.0020687
0.00199324
0.00200086
0.00201533
0.002043
0.00207652
0.0021501
0.00207015
0.00204853
0.00204152
0.00203852
0.00200006
0.00200379
0.00201404
0.00203733
0.00208022
0.00205064
0.00200742
0.00200184
0.00200402
0.00200673
0.00175844
0.00171679
0.00171218
0.00171238
0.00171119
0.00178447
0.0017851
0.0017846
0.00178689
0.00181296
0.00206431
0.00203333
0.002013
0.00200407
0.0020015
0.00197999
0.00197735
0.00197743
0.00199206
0.00206064
0.00208115
0.00207952
0.00208298
0.00208339
0.00208243
0.00212513
0.00212507
0.00212468
0.00212193
0.00211415
0.00220455
0.00211842
0.00195388
0.00173874
0.00163529
0.00163062
0.00163302
0.00163038
0.00162601
0.00184638
0.00184736
0.00185124
0.0018682
0.00190325
0.0019034
0.00188439
0.00187674
0.00187741
0.00187969
0.00168908
0.00169441
0.00169935
0.00169567
0.00168315
0.00151108
0.00149039
0.00147832
0.0014743
0.00147317
0.00123541
0.00123525
0.00123889
0.00125386
0.00128442
0.00123917
0.00122121
0.001215
0.00121512
0.00121655
0.00107629
0.00108516
0.00109423
0.00109686
0.00109184
0.00114688
0.00117912
0.00117887
0.00116783
0.00115674
0.000818317
0.00081545
0.000813901
0.000818319
0.000835954
0.000850292
0.000831369
0.000831655
0.000836353
0.000840027
0.000791722
0.000793754
0.000796749
0.000802168
0.000818529
0.000837225
0.000846963
0.000840404
0.000829405
0.000820463
0.000589482
0.000587283
0.000585293
0.000586893
0.000599947
0.000575509
0.000540848
0.000535135
0.000535745
0.000536916
0.000537146
0.000540445
0.000544505
0.000549388
0.000562835
0.000554647
0.000546561
0.000538693
0.000529472
0.000521574
0.000568707
0.000568889
0.000571187
0.000581038
0.000613425
0.000740931
0.000708021
0.000697542
0.000695697
0.000695635
0.000609601
0.000533577
0.000568976
0.000550906
0.000543306
0.000537885
0.00053383
0.000452784
0.000446986
0.000474735
0.000477401
0.000474145
0.00046836
0.000463191
0.000456737
0.000455062
0.000454763
0.00046034
0.000489119
0.00044431
0.000441085
0.000438358
0.000434154
0.000430411
0.000371959
0.00037162
0.000371774
0.000374203
0.000385607
0.000333261
0.000323006
0.000320321
0.000321845
0.000323682
0.000365052
0.000367084
0.000370963
0.000381192
0.000407753
0.000432642
0.000423109
0.000419087
0.000412473
0.000405818
0.000549443
0.000553266
0.00056185
0.000578875
0.000604396
0.000818466
0.000771242
0.000752947
0.00074327
0.000736993