/*--------------------------------*- C++ -*----------------------------------*\
  =========                 |
  \\      /  F ield         | OpenFOAM: The Open Source CFD Toolbox
   \\    /   O peration     | Website:  https://openfoam.org
    \\  /    A nd           | Version:  7
     \\/     M anipulation  |
\*---------------------------------------------------------------------------*/
FoamFile
{
    version     2.0;
    format      ascii;
    class       volVectorField;
    location    "8.5";
    object      wallShearStress;
}
// * * * * * * * * * * * * * * * * * * * * * * * * * * * * * * * * * * * * * //

dimensions      [0 2 -2 0 0 0 0];

internalField   uniform (0 0 0);

boundaryField
{
    outlet1
    {
        type            calculated;
        value           uniform (0 0 0);
    }
    Wall
    {
        type            calculated;
        value           nonuniform List<vector> 
40276
(
(0.000426714 4.95147e-05 0.000168215)
(-0.000186892 -8.60251e-06 0.000415482)
(-0.000190618 -7.84616e-06 0.000407427)
(9.19049e-05 -6.92753e-06 0.000156683)
(7.93752e-05 2.34874e-05 0.000155924)
(8.36737e-05 5.87945e-05 0.0001625)
(9.86034e-05 4.20952e-05 0.000171001)
(0.000131909 3.6929e-05 0.000183593)
(0.000102061 2.58951e-05 0.000165431)
(9.92794e-05 6.26854e-06 0.000170732)
(0.000385314 3.82468e-05 0.000408333)
(0.000465767 1.55914e-05 0.000442717)
(0.000584991 4.0089e-05 0.000940321)
(0.000562748 3.83141e-05 0.000870691)
(0.00048678 -1.56548e-05 0.000334038)
(0.000435106 1.62036e-06 0.000363189)
(0.000393691 2.04297e-05 5.69785e-05)
(0.000351855 2.34428e-05 2.34051e-05)
(-0.000112685 -1.12809e-05 -0.000174021)
(-0.00012186 -3.77842e-05 -0.000194)
(-0.000155631 3.92982e-05 0.000211305)
(-0.000186752 4.43481e-05 0.000198145)
(-0.000119964 3.22387e-05 6.77612e-05)
(-0.000138829 2.96488e-05 6.40747e-05)
(-0.000100039 2.37074e-05 4.3207e-05)
(-0.000112294 2.47535e-05 3.74248e-05)
(-0.000123777 4.10363e-05 2.19008e-05)
(-0.000121239 4.14585e-05 1.60222e-05)
(-0.000181985 5.8762e-05 3.28949e-05)
(-0.000163349 5.04251e-05 2.39827e-05)
(-0.000120507 3.92833e-05 7.10015e-05)
(-0.000134843 4.70821e-05 7.83874e-05)
(-5.25603e-05 -3.17466e-06 0.000159642)
(-4.68037e-05 -4.86285e-06 0.000148371)
(-6.27165e-05 1.02871e-05 8.11536e-06)
(-6.15728e-05 1.16822e-05 7.66215e-06)
(0.000565804 6.64792e-05 0.000216196)
(0.000615144 4.8481e-05 0.000239611)
(0.00105458 0.000255195 0.000405119)
(0.00119203 0.000327091 0.000426362)
(0.000990028 6.3855e-05 0.000165644)
(0.00095126 3.62409e-05 0.000192798)
(-5.05261e-05 -1.42492e-05 -0.000384201)
(-3.06262e-05 -1.07929e-05 -0.000347914)
(-5.35272e-05 -2.16077e-06 -0.000349567)
(-4.50633e-05 -6.11429e-06 -0.000286843)
(-7.35418e-05 -3.9407e-07 -0.000294893)
(-5.61943e-05 -3.16158e-06 -0.000237613)
(-6.48293e-05 -8.2919e-07 -0.000204131)
(-6.29679e-05 1.02105e-06 -0.000169288)
(-5.15353e-05 -1.13552e-06 -0.000138292)
(-6.34477e-05 1.31848e-06 -0.000145147)
(-5.46971e-05 -1.68569e-07 -0.000115338)
(-5.78293e-05 2.14487e-06 -0.000116733)
(0.000441685 8.13485e-05 0.000261651)
(0.000459928 9.53888e-05 0.000230855)
(-1.68386e-05 1.30067e-05 0.000130328)
(6.41269e-05 2.20116e-05 0.000191115)
(-9.69164e-06 8.401e-06 0.000132927)
(-0.000451556 -0.000151794 -0.000432085)
(-0.000480882 -0.000126414 -0.000442702)
(1.90641e-05 3.45557e-05 0.000291593)
(-1.27959e-05 -1.18188e-05 0.000225385)
(1.06324e-05 -1.06704e-06 -4.73536e-05)
(1.346e-05 2.9059e-06 -4.43251e-05)
(6.67811e-06 -1.468e-08 -4.32945e-05)
(2.02878e-06 -2.72521e-06 -4.17929e-05)
(1.1633e-05 5.63759e-08 -4.42776e-05)
(-0.000116377 -1.91501e-05 -0.00010592)
(-0.000128302 -8.67974e-06 -0.000115003)
(-5.22194e-05 4.15976e-06 -9.4845e-05)
(-5.31596e-05 1.03235e-07 -9.65852e-05)
(-1.73803e-05 1.30134e-06 -1.75539e-05)
(-1.7366e-05 1.319e-06 -1.73699e-05)
(-1.57397e-05 1.37422e-06 -1.70819e-05)
(-1.48771e-05 1.67877e-06 -1.64501e-05)
(-1.69726e-05 7.66293e-07 -1.69005e-05)
(2.37144e-05 -1.73193e-06 -5.51577e-06)
(2.05784e-05 -1.78779e-06 -9.34432e-06)
(-1.06821e-06 4.42729e-06 2.9382e-07)
(-3.41788e-07 -2.30898e-07 2.20826e-07)
(7.62499e-06 -1.1619e-06 -4.0013e-07)
(1.85119e-05 3.58263e-08 1.27163e-05)
(1.79504e-05 2.75446e-07 1.3052e-05)
(2.85752e-05 -1.44186e-06 2.0112e-05)
(5.85384e-06 5.10141e-07 -3.84186e-05)
(1.43085e-06 -1.88828e-06 -3.67666e-05)
(4.67695e-06 9.77357e-07 -3.36641e-05)
(2.57866e-05 -1.67674e-06 1.86389e-05)
(2.46315e-05 -1.22857e-06 1.77545e-05)
(2.11295e-05 -6.59649e-07 1.57163e-05)
(-4.44426e-05 -4.60297e-06 -4.02208e-05)
(4.29468e-07 -1.17873e-06 -3.22913e-05)
(3.53069e-06 1.29072e-06 -2.9611e-05)
(-2.71433e-07 -5.93892e-07 -2.85523e-05)
(-9.44382e-07 -3.39399e-07 -2.50964e-05)
(-1.55483e-06 5.40752e-08 -2.20975e-05)
(-2.37915e-06 2.18401e-07 -2.00314e-05)
(-5.75203e-06 -3.32209e-07 -1.61557e-05)
(-6.41117e-06 -1.25489e-07 -1.52423e-05)
(-7.24574e-06 1.06191e-09 -1.4858e-05)
(-1.02389e-05 -2.97246e-07 -1.48554e-05)
(-1.04575e-05 -2.17573e-07 -1.52298e-05)
(-4.98986e-05 -9.83205e-07 -4.37745e-05)
(-1.07295e-05 -3.10011e-08 -1.60592e-05)
(-1.89002e-05 -3.50397e-06 -2.30679e-05)
(-1.57534e-05 -3.48381e-06 -1.84356e-05)
(-1.05754e-05 -1.27215e-07 -1.66216e-05)
(-1.04832e-05 3.8194e-08 -1.76329e-05)
(-1.01052e-05 -5.74592e-07 -1.79578e-05)
(-1.02887e-05 4.22045e-08 -1.90717e-05)
(-9.75132e-06 -6.34217e-07 -1.98247e-05)
(-9.15781e-06 -2.78806e-07 -2.02324e-05)
(-8.92067e-06 -1.0818e-06 -2.17609e-05)
(-8.58687e-06 -1.70175e-06 -2.03938e-05)
(4.15761e-06 -8.92622e-07 -2.65013e-05)
(4.03759e-06 -2.8993e-06 -2.78325e-05)
(2.58597e-06 -2.90795e-06 -2.62609e-05)
(-0.000277152 -6.29557e-05 0.000486867)
(-0.00028022 -6.1455e-05 0.000441453)
(-1.52287e-05 -1.24514e-06 5.38232e-06)
(-1.26257e-05 -1.41573e-06 6.55625e-06)
(-4.18667e-05 -1.76267e-06 1.61509e-05)
(-3.62731e-05 -3.09847e-06 1.50297e-05)
(-4.38097e-06 -8.20858e-06 -5.42264e-06)
(-2.07432e-06 -8.09945e-06 -2.66747e-06)
(-0.000127352 2.5192e-05 0.000183863)
(-0.000110593 3.39035e-05 0.000156392)
(-0.000160179 -1.78838e-05 0.000274263)
(-0.000139956 -2.39495e-05 0.000236084)
(-0.000102801 -6.22693e-06 0.000172607)
(-8.99417e-05 -9.27964e-06 0.000148555)
(-0.000156081 9.35852e-05 0.000466048)
(-0.000216229 0.000169278 0.000651103)
(7.28378e-06 -1.18226e-05 0.000188506)
(-1.38951e-06 -4.5642e-06 0.000159314)
(-0.000102177 2.75835e-05 0.000192902)
(-5.58301e-05 1.3448e-06 0.000167329)
(-0.000179836 -5.74243e-05 0.000490013)
(-0.000179443 -4.06047e-05 0.000490747)
(-0.000179309 -4.54575e-05 0.000525085)
(-0.000194949 -2.17136e-05 0.00052655)
(-0.000559686 1.74238e-06 -0.000151367)
(-0.000642249 2.45743e-06 -0.000183542)
(-2.27552e-05 -7.96787e-05 9.95785e-06)
(-2.65495e-05 -7.89426e-05 1.19239e-05)
(-2.14392e-05 -4.38697e-05 6.54912e-05)
(-2.52036e-05 -5.36588e-05 8.18316e-05)
(-2.90441e-05 -5.25544e-05 6.60896e-05)
(-2.32131e-05 -4.04581e-05 5.37508e-05)
(-1.54685e-05 -8.61463e-05 8.48782e-06)
(-1.98958e-05 -9.83539e-05 6.53325e-06)
(-2.34947e-05 -8.34771e-05 8.81932e-06)
(-2.18824e-05 -8.64846e-05 9.21272e-06)
(-2.31358e-05 -0.000128636 -1.56103e-05)
(-1.99742e-05 -0.000111411 -1.41258e-05)
(-7.64287e-06 -5.66219e-05 -3.31689e-06)
(-9.87877e-06 -5.05372e-05 -4.75771e-06)
(-6.09879e-05 -3.12497e-05 9.45586e-05)
(-5.5776e-05 -3.30755e-05 8.93589e-05)
(9.04504e-05 3.79951e-06 -0.000233533)
(9.86087e-05 -5.12936e-06 -0.000218233)
(-0.000137155 -5.95233e-05 -1.2508e-05)
(-0.000135978 -6.65121e-05 -1.47026e-05)
(-0.00029805 -4.79787e-05 0.000147183)
(-0.000319923 -5.21098e-05 0.00013862)
(-0.000291661 -7.47147e-05 -2.60543e-05)
(-0.000285045 -6.19206e-05 -3.52639e-05)
(-0.000174307 0.000192881 0.000237325)
(-0.000168207 0.000241443 0.000220442)
(-0.00024897 -4.48344e-05 1.31671e-05)
(-0.000131116 -4.67506e-05 -1.84838e-05)
(-0.000206745 -7.74565e-05 7.46763e-05)
(-0.000178128 -7.5878e-05 6.31476e-05)
(-0.000227614 -5.18936e-05 5.8822e-05)
(-6.74129e-05 -4.22681e-05 -7.10715e-06)
(-3.91064e-05 -2.09138e-05 6.05065e-05)
(-3.22265e-05 -1.93919e-05 5.58604e-05)
(0.000541784 -0.000211129 0.000410854)
(0.00049816 -0.000186141 0.000343396)
(0.000477425 -0.000264045 0.000227392)
(0.000452604 -0.000196553 0.000257774)
(0.000460886 -0.000227069 0.00025636)
(0.000228971 -0.000144174 0.000185243)
(0.000323223 -0.000202022 0.00021631)
(0.000252829 -0.000146529 0.000199993)
(0.000420898 -0.000187902 0.000347094)
(0.000442697 -0.000230015 0.000330211)
(0.000438243 -0.000226204 0.000287849)
(0.000336535 -0.000221821 0.000188883)
(0.000440692 -0.000273319 0.000188709)
(0.000367233 -0.000200084 0.000242917)
(0.00013713 -6.69963e-05 0.000160168)
(0.000222454 -0.000145491 0.000184985)
(0.000171214 -8.36084e-05 0.000180129)
(0.000126775 -5.14771e-05 0.000164346)
(7.31793e-05 4.95799e-05 0.000155881)
(0.000288554 0.000112842 4.01879e-05)
(0.000350232 0.000111968 9.22871e-05)
(0.00029936 7.47476e-05 0.000105087)
(0.000317049 5.93946e-05 4.36658e-05)
(0.000377797 6.33067e-05 9.56339e-05)
(0.00034129 9.98463e-05 8.58973e-05)
(0.000306449 7.46238e-05 6.30211e-05)
(9.71963e-05 5.5118e-05 8.34228e-05)
(0.000114566 6.58224e-05 8.30729e-05)
(8.98429e-05 1.34267e-05 0.000136301)
(9.42681e-05 1.94174e-05 0.000134824)
(0.000106934 1.14054e-05 0.000158205)
(8.8525e-05 2.02315e-06 0.000142621)
(0.000100054 3.60115e-05 0.000132006)
(8.03586e-05 3.6734e-05 0.000100425)
(7.86785e-05 4.0323e-05 7.32266e-05)
(7.26744e-05 2.10737e-05 9.07537e-05)
(6.61136e-05 9.81832e-06 0.000105947)
(5.12589e-05 2.07301e-06 8.40377e-05)
(6.49573e-05 -2.9786e-06 0.000102189)
(5.59155e-05 1.84028e-05 7.07454e-05)
(4.84495e-05 1.63115e-05 6.04589e-05)
(5.20156e-05 1.49982e-05 6.88516e-05)
(0.000154514 9.37647e-05 4.22049e-05)
(0.000186643 0.0001037 6.19424e-05)
(0.000190978 9.3627e-05 7.31839e-05)
(0.000182945 8.85131e-05 4.20221e-05)
(0.000113544 6.79228e-05 7.09197e-05)
(0.000131106 7.72035e-05 4.63153e-05)
(0.000140246 8.29656e-05 2.62556e-05)
(0.000142926 7.06146e-05 3.7905e-05)
(0.00012451 6.85003e-05 4.23528e-05)
(0.000272122 0.00011168 3.28054e-05)
(0.000224182 0.000106176 3.03288e-05)
(0.000289077 0.000102558 4.70873e-05)
(0.000262923 7.44755e-05 3.22438e-05)
(0.000234971 9.81866e-05 1.873e-05)
(0.000215143 7.3876e-05 2.48913e-05)
(8.0579e-05 4.88805e-05 4.98829e-05)
(8.69049e-05 4.66573e-05 5.59347e-05)
(6.91902e-05 3.49184e-05 6.24493e-05)
(0.000106366 6.57104e-05 4.33248e-05)
(5.96851e-05 2.87091e-05 5.47175e-05)
(7.16876e-05 4.45714e-05 3.37568e-05)
(0.000118037 6.44166e-05 5.32283e-05)
(0.000154867 8.08297e-05 2.17671e-05)
(7.70433e-05 5.19654e-05 7.04889e-06)
(8.94657e-05 4.93005e-05 2.51471e-05)
(7.83549e-05 5.10225e-05 1.92936e-05)
(0.000141376 8.37945e-05 4.9295e-06)
(0.000172858 8.73699e-05 -1.6921e-05)
(0.000156395 6.08797e-05 2.08519e-05)
(0.000151854 7.50897e-05 8.10051e-06)
(0.000315285 2.84167e-05 0.000551244)
(0.000353361 5.73413e-05 0.000640776)
(0.00032129 -1.3173e-06 0.000573135)
(0.00033299 2.90259e-05 0.000589318)
(0.000353381 9.87718e-05 0.000391961)
(0.000381525 0.00010385 0.000465161)
(0.000273546 9.39817e-05 0.000382725)
(0.000298307 8.81722e-05 0.00043806)
(0.000294616 0.000106002 0.000439777)
(0.000276013 8.77004e-05 0.00045209)
(0.000391051 0.000156512 0.000504352)
(0.000327721 0.000132351 0.000378442)
(0.000372727 0.000137811 0.000471368)
(0.000237229 8.9842e-05 0.000383965)
(0.000317725 0.000115547 0.000479529)
(0.000403942 0.000129081 0.000380576)
(0.000363172 0.000134487 0.000450035)
(0.00035569 0.00013105 0.000450559)
(0.000410563 0.00013564 0.000560847)
(0.000426029 0.000169667 0.000495748)
(0.000469196 0.000183685 0.000493145)
(0.000461916 0.000192043 0.000466036)
(0.000451086 0.000159084 0.000556764)
(0.000435625 0.000163664 0.000556625)
(0.000395157 7.22896e-05 0.000460468)
(0.000506362 7.77641e-05 0.000492065)
(0.000388208 9.13711e-05 0.000473889)
(0.000301217 9.35856e-05 0.000371359)
(0.000380141 9.00782e-05 0.00046317)
(0.000415412 7.00167e-05 0.000403748)
(0.000311735 5.53717e-05 0.000303625)
(0.000337112 0.000101185 0.000364767)
(0.000361171 8.31602e-05 0.000353282)
(0.000365413 9.32316e-05 0.000345202)
(0.000488356 -4.15936e-05 0.000427138)
(0.000502528 -5.93743e-05 0.00042482)
(0.000513593 -0.000136638 0.000413033)
(0.000402164 -6.21933e-05 0.000368832)
(0.000483587 -0.000117187 0.000324983)
(0.000379987 -9.24653e-06 0.000339513)
(0.000527316 -0.000127253 0.000353745)
(0.00036184 -2.77768e-05 0.000292242)
(0.000466368 -9.74799e-05 0.000284728)
(0.000544552 -0.000205623 0.000270775)
(0.000341159 5.75324e-05 0.000354509)
(0.000340753 8.55354e-05 0.000372762)
(0.000379912 2.47418e-05 0.00031105)
(0.000377693 6.39521e-05 0.000328563)
(0.000394988 0.00014203 0.000376323)
(0.000429542 0.000148134 0.000508839)
(0.000427287 0.000146049 0.000456132)
(0.000441389 0.000127007 0.000370547)
(0.000497132 0.000162097 0.000414459)
(0.000496899 0.000190041 0.000522786)
(0.000447402 0.000158548 0.000521983)
(0.000472517 0.000155942 0.000550952)
(0.000471367 0.000172316 0.00039748)
(0.000451396 0.000158826 0.000523512)
(0.000451597 0.000163989 0.000522133)
(0.000572717 0.000208486 0.000656444)
(0.000546062 0.000195839 0.000512302)
(0.000401456 0.000116559 0.000368614)
(0.000569339 0.000179369 0.000420617)
(0.000451993 0.000104316 0.00039262)
(0.000581081 0.000146809 0.000398933)
(0.000513322 0.000178037 0.000439214)
(0.000517953 0.000162844 0.000510808)
(0.000694375 0.000261654 0.000523567)
(0.000549989 0.000186803 0.000433163)
(0.000525199 0.000159538 0.000456363)
(0.000734742 0.000258577 0.000483677)
(0.000568175 0.000245721 0.00048404)
(0.000604576 0.000209326 0.000591504)
(0.000559868 0.000182236 0.000624701)
(0.000662739 0.000226146 0.00062086)
(0.000660196 0.000231388 0.000599484)
(0.000350295 0.000140621 0.000455962)
(0.000341787 0.000131334 0.000450106)
(0.000235031 7.07086e-05 0.000425256)
(0.000338777 0.000128774 0.000488287)
(0.000426173 0.000121526 0.000632042)
(0.000389845 0.000111927 0.000580324)
(0.000378534 0.000146794 0.000491924)
(0.000398043 0.000154763 0.000510868)
(0.000381169 0.000147811 0.000560113)
(0.000362547 6.25758e-05 0.00064812)
(0.000313233 4.33789e-05 0.000579896)
(0.00036774 0.000108959 0.000607859)
(0.000350505 9.56102e-05 0.000603374)
(0.000313548 4.27401e-05 0.000507521)
(0.000424577 0.000170893 0.000538258)
(0.000449413 0.000139333 0.000627874)
(0.000400946 0.000122824 0.000611062)
(0.000386531 -4.84165e-06 0.000638083)
(0.000476023 0.00014465 0.000711313)
(0.000357888 6.00015e-05 0.000604737)
(0.000463727 0.000186727 0.000524148)
(0.000502614 0.000195543 0.000562466)
(0.00044767 0.00014146 0.000624507)
(0.0004385 0.000176047 0.000559673)
(0.00050671 0.000205007 0.000563366)
(0.000503468 0.000127657 0.000695225)
(0.000513807 0.000145188 0.000782647)
(0.00040959 4.82911e-05 0.000674548)
(0.000375744 4.63104e-05 0.000615068)
(0.000407677 7.80757e-05 0.00064914)
(0.000462982 0.000130237 0.000690095)
(0.000395294 7.47763e-05 0.000607467)
(0.000514264 0.000219936 0.000602266)
(0.000512967 0.000106029 0.000750126)
(0.000592958 0.000191866 0.000852644)
(0.000282317 1.17326e-05 0.000492933)
(0.000293502 5.55111e-05 0.000501678)
(0.000358041 0.000131897 0.000560217)
(0.000376834 8.38536e-05 0.000638261)
(0.000355146 2.62724e-05 0.00058893)
(0.00043801 9.36958e-05 0.000695629)
(0.000336179 -1.21634e-05 0.000568467)
(0.000338214 4.03644e-05 0.000559659)
(0.00043158 0.000143506 0.000678501)
(0.000360237 4.5926e-05 0.000613033)
(0.000315115 3.71382e-05 0.000528803)
(0.000383482 -4.68454e-06 0.000632784)
(0.000333104 4.2948e-05 0.000559465)
(0.000354171 4.60236e-05 0.000584007)
(0.000430525 4.28734e-05 0.000703372)
(0.000336437 8.75317e-05 0.000578582)
(0.000335322 5.99426e-05 0.000565315)
(0.000427797 -5.76095e-05 0.000655846)
(0.000479315 0.000129235 0.000754591)
(0.000412298 -2.12663e-05 0.000694088)
(0.000524547 6.5637e-05 0.000857736)
(0.000400464 1.28071e-05 0.000669036)
(0.000420692 3.55273e-05 0.000685424)
(0.000529984 0.00016007 0.000769635)
(0.000424878 5.37338e-05 0.000679303)
(0.000485636 3.53234e-05 0.000773216)
(0.00052328 4.5208e-05 0.000857524)
(0.000533384 1.93728e-05 0.000856296)
(0.00042071 3.5616e-05 0.000674308)
(0.000475769 4.15619e-05 0.000754933)
(0.000425409 1.50034e-05 0.000675627)
(0.00048535 4.91745e-05 0.000768114)
(0.000547773 0.000176447 0.000684623)
(0.000536083 0.000193093 0.000612311)
(-2.10033e-05 -4.91075e-05 0.000160197)
(0.000566579 0.000154811 0.000774907)
(0.000492829 0.000140381 0.000663557)
(0.000615909 0.000228101 0.000663579)
(0.000575066 0.000222339 0.000599789)
(0.000610321 0.000215218 0.000673498)
(-2.52607e-05 -4.87829e-05 0.000159637)
(0.000544193 0.000173629 0.000710176)
(0.000564171 0.000209114 0.00065703)
(0.000611407 0.000229975 0.000684947)
(0.00055619 0.000168847 0.000764374)
(0.000625441 0.000178914 0.000912481)
(-2.29019e-05 -4.85648e-05 0.000156917)
(0.000469287 7.30802e-05 0.000727688)
(0.000433732 6.34956e-05 0.0007105)
(0.00046749 9.74628e-05 0.000705676)
(0.000527008 6.0011e-05 0.000795912)
(0.000464405 0.00010759 0.000702781)
(-2.53713e-05 -3.80781e-05 0.000159929)
(0.000576312 0.000236781 0.000662834)
(0.000594854 0.000121934 0.000837031)
(0.000682191 0.00021732 0.000929981)
(0.00065649 0.000219664 0.000773134)
(0.000715188 0.000252638 0.000647688)
(0.000771925 0.000285019 0.000655785)
(0.000646107 0.000191112 0.000832839)
(0.000604598 0.000175949 0.000745248)
(0.000633837 0.000257938 0.000626417)
(0.000667555 0.000237575 0.000678506)
(0.000642271 0.0002041 0.000758672)
(0.000711848 0.000245508 0.000809271)
(0.000736907 0.000283424 0.000775761)
(0.000657684 0.000204986 0.000836295)
(0.000684893 0.000171997 0.000940355)
(0.000561891 0.000138118 0.000782878)
(0.000625996 0.000139915 0.000973859)
(0.000509496 0.000105334 0.000751671)
(0.00058718 8.1131e-05 0.000888382)
(0.000729895 0.000241484 0.00092494)
(0.000606144 0.000196696 0.000765375)
(0.000644882 0.000168801 0.00092014)
(0.000536935 8.98245e-05 0.000866394)
(0.000556801 0.000150399 0.000787612)
(0.000728229 0.00013211 0.00102227)
(0.000640616 0.000146544 0.000994438)
(0.000591221 6.5989e-05 0.00094929)
(0.000592641 1.98878e-05 0.000944009)
(0.000474751 2.93929e-05 0.000787941)
(0.000467347 6.59843e-05 0.000733515)
(0.000601973 0.000119854 0.00087125)
(0.000614371 0.000126512 0.000960183)
(0.00057734 2.76287e-05 0.000904518)
(0.000593184 3.82034e-05 0.000934343)
(0.000602534 -3.95515e-05 0.000936526)
(0.000584163 3.87157e-05 0.000894281)
(0.000668829 0.000132011 0.00097115)
(-3.13442e-05 -4.31762e-05 0.000168315)
(0.000500844 -2.3341e-06 0.000820566)
(0.000455843 5.66995e-05 0.000717989)
(0.000649221 0.000149949 0.000956735)
(0.000675801 0.000189753 0.00101298)
(0.00056476 -1.77603e-06 0.000943901)
(0.000702686 6.25161e-05 0.00110991)
(0.000525828 4.10135e-05 0.000827501)
(0.000649417 2.94228e-05 0.000996248)
(0.000519066 5.17422e-05 0.000821338)
(0.000500043 -1.95165e-05 0.000761627)
(0.000642406 -9.04963e-05 0.000952475)
(0.00068789 3.15885e-05 0.00109049)
(0.000688734 5.93273e-08 0.00107963)
(0.000368173 -5.07631e-05 0.000535962)
(0.000290177 2.01297e-05 0.000450411)
(0.000325064 9.88493e-06 0.000467122)
(0.00031456 1.00767e-05 0.000481672)
(0.000226221 4.1009e-05 0.00040468)
(0.000300573 2.83071e-05 0.000465952)
(0.000384296 3.19962e-06 0.000499818)
(0.000301378 4.68907e-05 0.000471259)
(0.000349978 4.50285e-05 0.000621817)
(0.000351639 6.21619e-05 0.000596456)
(-2.31145e-05 -4.18166e-05 0.000153496)
(-2.6782e-05 -4.3849e-05 0.000160394)
(-2.47825e-05 -4.05161e-05 0.000148576)
(-2.6265e-05 -3.68384e-05 0.000149438)
(0.000392762 3.32804e-05 0.000614638)
(0.000355415 7.56234e-05 0.000563606)
(0.000423385 1.48787e-05 0.000568327)
(0.000379944 3.2244e-05 0.000511084)
(0.000397992 -1.32069e-05 0.000513757)
(0.000394673 3.88077e-06 0.000484929)
(-2.97062e-05 -3.62286e-05 0.000154813)
(0.000416829 1.99784e-06 0.000537011)
(-3.50285e-05 -2.89016e-05 0.000164887)
(-3.01217e-05 -3.46104e-05 0.000155905)
(0.000447983 1.15572e-05 0.000222764)
(0.000445499 1.56004e-05 0.000271213)
(0.000424303 -1.46863e-05 0.000257466)
(-3.34614e-05 -3.44543e-05 0.000153931)
(-2.65141e-05 -3.83312e-05 0.000164557)
(-2.59102e-05 -4.18705e-05 0.000161102)
(-3.2313e-05 -3.37755e-05 0.000174993)
(-3.38537e-05 -4.23119e-05 0.000182597)
(-2.96973e-05 -3.02995e-05 0.000166608)
(-2.85613e-05 -2.62522e-05 0.000159413)
(-3.46585e-05 -3.44921e-05 0.000159)
(0.000396664 6.35042e-05 7.14423e-05)
(0.000457734 6.41098e-05 0.00013719)
(0.000376514 3.26665e-05 7.96677e-05)
(0.000361894 6.63977e-05 5.73992e-05)
(0.000377175 4.66911e-05 8.10168e-05)
(0.000438663 1.05473e-05 0.000125119)
(0.000424298 1.19424e-05 0.000187285)
(0.000450355 -3.11378e-05 0.000195567)
(0.000444215 -5.94526e-08 0.000161732)
(0.00042434 -1.00042e-06 0.000203952)
(0.000413213 2.8288e-05 8.80653e-05)
(0.000430947 -9.24837e-06 9.4635e-05)
(0.000438011 -9.42658e-06 0.000386703)
(0.000415775 5.39257e-06 0.000421606)
(0.000402164 -2.39097e-06 0.000438504)
(0.000364133 5.50258e-06 0.000421648)
(0.000395476 3.21173e-06 0.000463097)
(0.000332618 2.47852e-05 0.000430676)
(0.000464192 -5.26232e-06 0.000415532)
(0.000470342 -2.61264e-05 0.000355701)
(0.000474501 -1.56188e-05 0.000341141)
(0.000414714 -5.03559e-06 0.000355046)
(0.000393865 -2.33074e-05 0.000444648)
(0.000409395 -1.51089e-05 0.000399623)
(0.000435351 2.22222e-05 0.00051587)
(0.000503633 -3.68376e-05 0.000247966)
(0.000464075 -5.25976e-05 0.000333053)
(0.0004751 -5.38176e-05 0.000279963)
(0.000488541 -3.50523e-05 0.000354002)
(0.000523741 -8.85357e-05 0.000227977)
(0.000462286 -5.05321e-05 0.00038588)
(0.000429574 -4.42851e-05 0.000449189)
(0.00046963 -7.2092e-05 0.00043042)
(0.000473412 -1.60406e-05 0.000520322)
(0.000555084 -0.000103745 0.000408851)
(0.00051362 -0.000103373 0.00033709)
(0.000525934 -9.32792e-05 0.000273539)
(0.000510556 -7.00458e-05 0.000343479)
(0.000457549 -5.04187e-05 0.000176811)
(0.000454693 -4.11905e-05 0.000140913)
(0.000486492 -4.44539e-05 0.000181482)
(0.000333802 7.50316e-05 2.75877e-05)
(0.000343623 5.71198e-05 5.46018e-05)
(0.000296862 8.39326e-05 6.45593e-06)
(0.000320648 6.98258e-05 2.50133e-05)
(0.000364596 3.09478e-05 4.6723e-05)
(0.000409552 -1.99477e-06 6.93014e-05)
(0.000336403 4.53497e-05 4.60429e-05)
(0.000227756 8.28786e-05 -4.25705e-06)
(0.000309694 8.96151e-05 1.24617e-05)
(0.000144264 7.09004e-05 3.70287e-05)
(0.000154843 6.76344e-05 1.32165e-05)
(0.000256607 9.72854e-05 6.61212e-06)
(0.000270592 7.19396e-05 4.17731e-05)
(0.000248809 3.98744e-05 -1.75988e-05)
(0.000291482 4.8435e-05 2.60605e-05)
(0.000350371 3.77746e-05 1.80399e-05)
(0.000246646 7.68311e-05 5.06198e-06)
(0.000235935 5.48561e-05 1.00562e-05)
(0.000313684 5.44261e-05 1.6443e-05)
(0.000587809 -0.000138846 0.000192906)
(0.000570894 -0.000142051 0.000347978)
(0.000558471 -0.000139419 0.000274939)
(0.000583186 -0.000128359 0.00035241)
(0.00046577 -3.07304e-05 0.00010842)
(0.000508073 -0.000104286 0.000172754)
(0.000467599 -5.46931e-05 0.000150475)
(0.000471932 -7.60284e-05 0.000153449)
(0.000422151 -1.8009e-05 6.60094e-05)
(0.000457744 -5.99498e-05 0.000100317)
(0.000544189 -0.000111754 0.000137077)
(0.000588384 -0.000131178 0.000171546)
(0.000616558 -0.000199473 0.000242099)
(0.000578794 -0.000138332 0.000164447)
(0.000553865 -0.000147634 0.000194535)
(0.000386402 1.62036e-05 4.01518e-05)
(0.000397606 -8.60128e-06 3.87561e-05)
(0.00042731 -5.8272e-05 9.54346e-05)
(0.000399119 -8.52096e-06 6.88152e-05)
(0.000415254 -3.64106e-05 5.74282e-05)
(0.000328145 3.33444e-05 4.43013e-05)
(0.000375152 -5.22336e-06 4.0851e-05)
(0.000552877 -0.000103689 9.85876e-05)
(0.000583679 -0.00015932 0.000115797)
(0.000602734 -0.000159239 0.000107687)
(0.000465636 -7.03556e-05 0.000108991)
(0.000428497 -3.27862e-05 0.000122127)
(0.000477714 -7.0012e-05 8.81382e-05)
(0.000308472 5.44428e-05 0.000527156)
(0.000327058 3.56259e-05 0.000543835)
(0.000370224 -1.52989e-05 0.000580862)
(0.000368925 7.30231e-06 0.000572906)
(0.000315016 7.37548e-05 0.000532153)
(0.000357198 7.41949e-06 0.000541014)
(0.00045625 -2.70229e-05 0.000680539)
(0.000326916 2.80254e-05 0.000534604)
(0.000358311 1.51701e-05 0.000553829)
(0.000415337 2.55154e-05 0.000639493)
(0.000406763 -1.34707e-05 0.000563611)
(0.000373942 1.06647e-05 0.000527488)
(0.000418536 1.62381e-05 0.000599231)
(0.00048551 -1.88035e-05 0.000689516)
(0.000491941 1.89253e-05 0.000809848)
(0.000369245 4.86876e-05 0.000591628)
(0.000423435 4.88153e-05 0.000685075)
(0.00040582 5.07861e-05 0.000678971)
(0.000434121 1.84666e-06 0.000666048)
(0.000575989 -6.94645e-05 0.000813852)
(0.000532797 -0.000117949 0.000710284)
(0.000441462 6.16326e-05 0.00071811)
(0.000461656 -1.62846e-05 0.000679214)
(0.000414463 3.82794e-06 0.000582649)
(0.000468422 5.43906e-06 0.000665954)
(0.000456985 -4.22319e-05 0.000567771)
(0.000414532 -3.35401e-05 0.000492164)
(0.00046507 -1.52548e-05 0.000591323)
(-3.62041e-05 -2.99861e-05 0.00016088)
(0.000531877 -0.000114344 0.000632685)
(0.000503137 -8.28981e-05 0.000534121)
(0.000546478 -3.28911e-05 0.000662857)
(0.000432049 -2.64234e-05 0.000616089)
(0.000501866 -6.01836e-05 0.000633943)
(0.000569821 -4.66061e-05 0.000743608)
(0.000520689 -0.000111359 0.000521138)
(0.000514303 -0.000103829 0.000435516)
(0.000498707 -4.6745e-05 0.000541483)
(0.000635744 -4.3283e-05 0.000969036)
(0.000444796 2.6989e-06 0.000679451)
(-3.63527e-05 -2.58174e-05 0.000148701)
(0.000475001 -2.61154e-05 0.000676554)
(0.000549556 -1.67539e-05 0.000801153)
(0.000620868 -9.33623e-05 0.000870522)
(0.000636142 -0.000137893 0.000803901)
(0.000468048 -7.12935e-05 0.00057932)
(-4.14683e-05 -2.12601e-05 0.000160455)
(0.000581711 -0.000216255 0.000533125)
(0.000604405 -8.59104e-05 0.00072176)
(0.000611082 -0.000106907 0.000826582)
(0.000542234 -0.000114829 0.000677786)
(0.000602016 -7.33685e-05 0.000793742)
(0.00066717 -0.000152172 0.000770853)
(0.00059983 -0.000141443 0.000613701)
(0.000730187 -0.000254068 0.000781061)
(0.000655127 -0.000266114 0.000600946)
(0.00068139 -0.000183538 0.000757199)
(0.000480641 1.21894e-05 0.000751316)
(0.000485552 -4.36251e-05 0.000707622)
(0.000597229 -5.84559e-05 0.000861175)
(0.000639215 -6.39695e-05 0.000952672)
(0.000628049 -0.000162579 0.00086707)
(0.000577377 1.39856e-05 0.000864702)
(0.000653222 -0.000119638 0.000971713)
(0.000618557 4.97774e-05 0.000962909)
(0.000579721 -7.15357e-05 0.000852907)
(0.000570559 -0.000108362 0.000788421)
(0.000680911 -0.000144927 0.000933393)
(0.000564841 -0.000124557 0.00077033)
(0.000619829 -0.000181474 0.000740529)
(0.000700616 -0.000162467 0.000882378)
(0.000798702 -0.000253971 0.000941278)
(0.000616115 -0.000248154 0.000688974)
(0.000735355 -0.000355965 0.000621633)
(0.000743184 -0.00020145 0.000830712)
(0.00061907 -0.000182386 0.000416995)
(0.000515024 -0.000177455 0.00044432)
(0.000602694 -0.000193697 0.000451827)
(0.000585199 -9.76986e-05 0.000593752)
(0.000641415 -0.000177573 0.000593434)
(0.000643397 -0.000219123 0.000409238)
(0.000592412 -0.000207618 0.000361585)
(0.000661022 -0.000217962 0.000253209)
(0.000596937 -0.000164043 0.000347297)
(0.000690277 -0.00025564 0.000419175)
(0.000704915 -0.00030061 0.000289503)
(0.000685231 -0.000247855 0.000390125)
(0.000713072 -0.000267843 0.000594891)
(-4.41842e-05 -1.70961e-05 0.000158697)
(0.000686558 -0.000316125 0.00043809)
(0.000690229 -0.000236353 0.000583966)
(0.000813144 -0.000384063 0.000697319)
(0.000796876 -0.000413438 0.000471598)
(0.000743868 -0.000281021 0.000641105)
(-4.74713e-05 -1.24124e-05 0.000160005)
(0.000775324 -0.000369073 0.000475016)
(0.00081514 -0.000381685 0.000344659)
(-3.59742e-05 -3.43342e-05 0.000183086)
(0.000708684 -0.000278592 0.00044698)
(0.000641205 -0.000217143 0.000261254)
(-4.00226e-05 -2.70537e-05 0.000186331)
(0.000651504 -0.000194162 0.000220766)
(0.000635138 -0.000209599 0.000227093)
(-3.42647e-05 -3.41646e-05 0.000168402)
(0.00070725 -0.000205387 0.000172821)
(-3.74141e-05 -1.67246e-05 0.000169754)
(-4.07006e-05 -2.86348e-05 0.000183189)
(0.000730008 -0.000327301 0.000244229)
(0.000679525 -0.00024551 0.000218471)
(-4.1854e-05 -2.72142e-05 0.000182843)
(0.000674641 -0.00025177 0.000272659)
(0.000394934 -0.000233656 0.000221161)
(-4.53861e-05 -1.97985e-05 0.000178138)
(0.000458894 -0.000282843 0.000180577)
(0.00036634 -0.000227323 0.000177534)
(-4.44099e-05 -2.0447e-05 0.000182262)
(0.000264347 -0.000167772 0.000181551)
(0.000332968 -0.00021863 0.000184434)
(-4.82986e-05 -1.30707e-05 0.000190961)
(0.000240093 -0.000161446 0.000150724)
(0.000291458 -0.000164927 0.000228098)
(-3.71442e-05 -1.9627e-05 0.000164302)
(-3.36579e-05 -1.74119e-05 0.000151548)
(0.000337018 -0.000204623 0.000179805)
(-3.92819e-05 -2.37978e-05 0.00015401)
(-4.11358e-05 -1.82257e-05 0.000168282)
(0.000162436 -9.5757e-05 0.000148819)
(-3.95906e-05 -1.58527e-05 0.000152876)
(-4.35069e-05 -1.32368e-05 0.000166666)
(0.000221835 -0.000142367 0.000170785)
(-4.21052e-05 -1.26292e-05 0.000151042)
(0.000149952 -9.16903e-05 0.000130717)
(8.0705e-05 -3.48735e-05 9.93878e-05)
(0.000137115 -7.04469e-05 0.000149791)
(9.56294e-05 -3.48849e-05 0.00011864)
(6.3824e-05 -2.18825e-05 8.57885e-05)
(0.000107387 -4.32841e-05 0.000127356)
(7.53836e-05 -4.20507e-05 8.14768e-05)
(0.000164799 -8.32674e-05 0.000168979)
(0.000203479 -0.000111874 0.000168975)
(0.000216465 -0.000180625 8.65907e-05)
(0.000351629 -0.000256444 0.000118542)
(0.000249166 -0.000168586 0.000141659)
(9.33332e-05 -6.89836e-05 6.74528e-05)
(0.000207322 -0.000162964 0.000103455)
(0.000149505 -0.000101518 0.000114799)
(0.000105567 -6.80988e-05 0.000100992)