/*--------------------------------*- C++ -*----------------------------------*\
  =========                 |
  \\      /  F ield         | OpenFOAM: The Open Source CFD Toolbox
   \\    /   O peration     | Website:  https://openfoam.org
    \\  /    A nd           | Version:  7
     \\/     M anipulation  |
\*---------------------------------------------------------------------------*/
FoamFile
{
    version     2.0;
    format      ascii;
    class       volScalarField;
    location    "6";
    object      p;
}
// * * * * * * * * * * * * * * * * * * * * * * * * * * * * * * * * * * * * * //

dimensions      [0 2 -2 0 0 0 0];

internalField   nonuniform List<scalar> 
382612
(
0.00209007
0.00187085
0.00200963
0.00201259
0.00176337
0.00222756
0.00213396
0.00201743
0.00184158
0.00170646
0.00188491
0.00187281
0.0018351
0.00186355
0.00195954
0.00208919
0.00187709
0.00201706
0.00203465
0.00205607
0.00207675
0.00210363
0.00213049
0.0021498
0.00212973
0.002105
0.00208138
0.00251115
0.00255757
0.00259659
0.00262896
0.00241849
0.00241126
0.00240162
0.00238471
0.00229416
0.00198608
0.00206264
0.00212782
0.00216093
0.00218857
0.00221319
0.00213514
0.00211812
0.00209575
0.0020679
0.00198327
0.00199834
0.00201977
0.00203751
0.00219239
0.00217447
0.00215328
0.00213056
0.00209926
0.00195032
0.00199441
0.00206829
0.00213417
0.00203075
0.00210627
0.0020001
0.00202046
0.00263042
0.00205898
0.00189378
0.0021755
0.00237537
0.0024771
0.00261644
0.00263516
0.00263799
0.00263949
0.00279782
0.00278774
0.0027743
0.00274849
0.0026387
0.00242482
0.00253382
0.00257629
0.00260469
0.00262466
0.0029647
0.00297165
0.00297925
0.00296065
0.00279443
0.00215685
0.00229235
0.00232595
0.00234239
0.0023533
0.00252915
0.00254329
0.0025604
0.00255866
0.00247328
0.00203636
0.00209829
0.002126
0.00214146
0.00215803
0.00217681
0.00205313
0.00204499
0.00203569
0.0020318
0.00184392
0.00187401
0.00189675
0.00191343
0.00216257
0.00214143
0.00211811
0.00209501
0.00206131
0.00173028
0.0018362
0.00186958
0.00188618
0.00189652
0.00206186
0.00204057
0.00201781
0.00199275
0.00192118
0.00166875
0.0018454
0.00198906
0.00201447
0.00202469
0.00202854
0.00223973
0.00224807
0.00225969
0.00227079
0.00237842
0.00235505
0.0022315
0.00220138
0.00218234
0.00216868
0.00189804
0.00188741
0.00187474
0.00186635
0.00199507
0.00201091
0.00202393
0.0020327
0.00203089
0.00202515
0.00201634
0.00200973
0.00205059
0.00196695
0.00189906
0.00189943
0.001907
0.00191248
0.0018413
0.00199592
0.00203073
0.00171703
0.00186128
0.00181575
0.00210775
0.00231979
0.00176382
0.00178953
0.00211923
0.00174047
0.00181231
0.00179194
0.00173022
0.00172815
0.00173724
0.00174282
0.00226482
0.00227587
0.00229386
0.00231565
0.00230604
0.00193983
0.00190387
0.00189492
0.00189532
0.00189741
0.00224006
0.00225571
0.00228071
0.00231079
0.00233675
0.00200372
0.00212493
0.00213539
0.00213453
0.0021298
0.00212683
0.00193046
0.00193088
0.00193362
0.00194584
0.00162504
0.00162936
0.00163728
0.00164055
0.00198836
0.00198806
0.00198707
0.00198863
0.00202526
0.00164731
0.00163763
0.00202439
0.00192307
0.00159194
0.00182495
0.00198043
0.00168288
0.00196937
0.00193965
0.00166103
0.00155689
0.0018836
0.00191119
0.0017634
0.00157409
0.00180583
0.0019485
0.00200584
0.00199924
0.00197696
0.00184397
0.00169457
0.00201857
0.00193505
0.00199876
0.00204222
0.00196646
0.00200292
0.00212533
0.00211292
0.00191413
0.00194632
0.00198579
0.00199718
0.00201166
0.0020271
0.0021906
0.00218757
0.00217825
0.00213688
0.00241222
0.00238824
0.00236969
0.00235251
0.00279117
0.00278052
0.00277036
0.00274512
0.00260396
0.00251
0.00244249
0.00245311
0.0024664
0.00247046
0.00247683
0.00213348
0.00213523
0.00212986
0.00211545
0.00212434
0.0026021
0.00256727
0.00257137
0.00258142
0.0025901
0.00242135
0.00240722
0.00238463
0.00236675
0.00238908
0.0026215
0.00257782
0.00257769
0.00259201
0.00260381
0.00281681
0.00281695
0.00281625
0.00280581
0.00272967
0.0026412
0.0027718
0.00280332
0.00281708
0.00282512
0.00325783
0.00326378
0.00327128
0.00325079
0.0030637
0.00227528
0.00230763
0.00232426
0.0023473
0.00236623
0.00243399
0.00242552
0.00241405
0.00239099
0.00228328
0.0020863
0.00217112
0.00220613
0.00223161
0.00224865
0.00259491
0.0026098
0.00263367
0.00264258
0.0025456
0.00184869
0.00185371
0.00186127
0.00187952
0.00189671
0.00199745
0.00200473
0.00201836
0.00203321
0.00204326
0.00195788
0.00194177
0.00192147
0.00190886
0.00189104
0.00245141
0.00246595
0.00244646
0.00241974
0.00240054
0.00185469
0.0018446
0.00183246
0.00183238
0.00186619
0.00237635
0.00232962
0.00229818
0.00227205
0.00225528
0.00172553
0.0017213
0.00171683
0.00173075
0.00182662
0.00200981
0.00194713
0.00193901
0.00194454
0.00195051
0.00220264
0.00221664
0.00223765
0.00226563
0.00231804
0.00191822
0.0018252
0.00181315
0.00181972
0.00182587
0.00217658
0.00218811
0.00220486
0.00222358
0.00223308
0.00199784
0.00204393
0.00204655
0.00204747
0.00204422
0.0020411
0.00195024
0.00194979
0.00194986
0.00195577
0.00178408
0.00178172
0.00178346
0.00178426
0.00197793
0.00198117
0.00198394
0.00198609
0.00199512
0.00180283
0.00205466
0.00199805
0.0019855
0.00198226
0.00197992
0.00192278
0.00208941
0.00218488
0.00213097
0.00211376
0.00210463
0.00209844
0.00196702
0.00196734
0.00196723
0.00196665
0.0020333
0.00203045
0.00202613
0.00202275
0.00204628
0.00204808
0.00205072
0.00205265
0.0020191
0.00202085
0.00202429
0.00202649
0.00219231
0.00219726
0.00220276
0.0022082
0.00223445
0.00203442
0.00205686
0.00208975
0.00214126
0.0019624
0.0020419
0.00200752
0.00187005
0.00175919
0.00196866
0.0019715
0.0017851
0.00214516
0.00211214
0.00207922
0.00210562
0.00197423
0.00203696
0.00206932
0.00214763
0.00213871
0.00224378
0.00224502
0.00220529
0.00219778
0.00219828
0.00219985
0.00226708
0.00226434
0.00226055
0.00225752
0.00226355
0.00233387
0.0023352
0.00233413
0.00233461
0.00233644
0.00227031
0.00227186
0.00227363
0.00227439
0.00228113
0.00211196
0.00206571
0.00206946
0.00206992
0.00206794
0.0020664
0.00211697
0.00211188
0.00210525
0.00210143
0.0020456
0.00204901
0.00205297
0.00205576
0.00204072
0.00204249
0.00204478
0.00204562
0.00204597
0.00204534
0.00223504
0.00221477
0.00221336
0.00221156
0.00220906
0.00222673
0.00230068
0.00225264
0.00223337
0.00223712
0.00224452
0.00224989
0.00245038
0.00245034
0.00244865
0.00243927
0.00240981
0.00244481
0.00246396
0.00247072
0.00247497
0.00247813
0.00238455
0.00238009
0.00237433
0.00236937
0.00237389
0.00230757
0.00232622
0.00233586
0.00233962
0.00234175
0.00215709
0.00214878
0.0021387
0.00213372
0.00209935
0.00210138
0.00210017
0.00209923
0.00214675
0.00214597
0.00214496
0.00214186
0.00219603
0.00219746
0.00220243
0.00220656
0.00243501
0.00242465
0.00241084
0.00239318
0.00236576
0.00220203
0.00212884
0.00211952
0.00223052
0.00218102
0.00211688
0.00207708
0.00212119
0.001975
0.00202395
0.00207742
0.00209968
0.00217892
0.00209516
0.00209416
0.00218946
0.00213983
0.00208869
0.00226621
0.00231799
0.00240914
0.00243483
0.00239084
0.00238973
0.00239551
0.00240325
0.00240879
0.00255415
0.00254782
0.00253811
0.00252389
0.00249822
0.00252987
0.00255747
0.0025684
0.00257481
0.00257869
0.00249214
0.00248866
0.00248271
0.00247258
0.00246173
0.00249866
0.00251376
0.00252189
0.00252583
0.00252819
0.00245835
0.00244739
0.00243297
0.0024161
0.00238293
0.00224373
0.00226691
0.00226727
0.00226509
0.00226343
0.00234352
0.00233351
0.00232151
0.00230508
0.0022555
0.00216917
0.0021121
0.00212294
0.00212824
0.00212906
0.00212898
0.00215652
0.00215197
0.00214677
0.00214847
0.0021901
0.00219521
0.00220198
0.00220721
0.00213542
0.00213469
0.00213418
0.00213282
0.00212438
0.00218607
0.00217643
0.00210906
0.00211579
0.00216806
0.00211752
0.00208072
0.00210136
0.00215619
0.00226101
0.00214533
0.00208166
0.00213176
0.00222174
0.00210755
0.0022943
0.00260956
0.00224666
0.00212004
0.00240822
0.00252512
0.00258087
0.0025772
0.0025422
0.00250979
0.00242514
0.00245247
0.0024659
0.00247222
0.00247577
0.00255602
0.00255183
0.00254678
0.00253943
0.00251498
0.00257622
0.00260986
0.00262033
0.00262659
0.00263125
0.00258727
0.002579
0.00256796
0.00255524
0.00253818
0.00257432
0.00260976
0.00262302
0.00263051
0.0026356
0.00260933
0.00260529
0.0025983
0.00258434
0.0025453
0.00243762
0.00243797
0.00244461
0.00245342
0.00246051
0.00250942
0.00250657
0.0025026
0.00249377
0.00246537
0.00234184
0.00234714
0.00235414
0.00236047
0.00236467
0.00222273
0.00221826
0.00221264
0.0022067
0.00219607
0.0021242
0.00209743
0.00210758
0.0021115
0.00211168
0.00211004
0.00213647
0.00213243
0.002127
0.00212299
0.00211584
0.00211814
0.00212209
0.00212647
0.00208407
0.00208385
0.00208136
0.00207551
0.00207056
0.00211921
0.00221602
0.00221488
0.00222032
0.00222663
0.0022319
0.00217836
0.00217343
0.00216734
0.0021624
0.00216092
0.00207597
0.00205462
0.00206717
0.00207122
0.00207313
0.00207546
0.00210393
0.00209763
0.00209009
0.0020841
0.00209955
0.00210109
0.00210319
0.00210496
0.00209154
0.00208881
0.00208786
0.0020863
0.00207552
0.00209556
0.00209442
0.00205788
0.00207493
0.00208614
0.00204446
0.00203049
0.00210416
0.0021482
0.00218176
0.00210074
0.00208371
0.00208395
0.00211498
0.00207992
0.00199961
0.00192487
0.00218784
0.00210605
0.00218291
0.00227404
0.0023728
0.00220068
0.00217786
0.00232601
0.00204964
0.00203909
0.00210748
0.00221623
0.00214442
0.00209101
0.00209177
0.00219265
0.00223683
0.00212224
0.00207602
0.00204917
0.0023044
0.00228651
0.00234262
0.00234301
0.00236109
0.00234028
0.00233527
0.00233496
0.00233578
0.00233522
0.00233447
0.00233499
0.0023389
0.00234098
0.00242661
0.0024401
0.00244218
0.00244415
0.00244611
0.00236355
0.00236198
0.00235833
0.00234919
0.00233034
0.00228719
0.00227702
0.00227416
0.00227529
0.00227759
0.00238988
0.00238603
0.00238178
0.00237657
0.00235982
0.00242058
0.00244704
0.00245688
0.00246418
0.00246978
0.00255891
0.00255443
0.00254676
0.00253031
0.00249063
0.00245179
0.00247807
0.00249301
0.00250175
0.00250709
0.00258125
0.002575
0.00256753
0.00255903
0.00253646
0.00252508
0.00254501
0.00255277
0.00255781
0.00256137
0.00247742
0.00247431
0.00247104
0.00246693
0.00245021
0.00239197
0.00238986
0.00239009
0.00239263
0.0023949
0.00229789
0.002292
0.00228479
0.00228113
0.00229019
0.00230194
0.00232252
0.00232788
0.00232887
0.00232968
0.00220194
0.00220394
0.00220518
0.00220368
0.00219052
0.00219158
0.0022096
0.00221091
0.0022078
0.00220442
0.00206256
0.00205787
0.00205281
0.00205188
0.0020737
0.00207944
0.00208283
0.00208584
0.00207198
0.00206819
0.00206351
0.00205649
0.00204743
0.00205771
0.002056
0.00206061
0.0020659
0.00206987
0.00209897
0.00209981
0.00210022
0.00210054
0.00210082
0.00208156
0.00208054
0.00208059
0.002081
0.00208117
0.00203252
0.00202833
0.00202289
0.00201916
0.00202695
0.0020315
0.00203534
0.00203919
0.00210089
0.00209718
0.00209521
0.00209308
0.00207399
0.00207144
0.00207369
0.00207669
0.00211642
0.00212059
0.00212619
0.00213179
0.00213629
0.00208643
0.00208797
0.00206939
0.00205348
0.00191455
0.0019791
0.00209863
0.00207027
0.0020357
0.00205287
0.00209354
0.00212048
0.00184636
0.0019779
0.00197512
0.00181892
0.00190392
0.00196368
0.00203176
0.00201393
0.00211612
0.00207268
0.00211105
0.00221074
0.00227691
0.00212703
0.00210372
0.0021636
0.0022401
0.00215933
0.0020523
0.00208442
0.00205411
0.00235707
0.00261732
0.00278285
0.00283335
0.00276496
0.00259573
0.00237219
0.00212568
0.00189859
0.00175729
0.00179919
0.00181141
0.00181029
0.00180685
0.0019457
0.00193921
0.00193222
0.0019285
0.00192527
0.00213386
0.00219893
0.00221578
0.00221662
0.00221477
0.00230272
0.00229495
0.00228587
0.0022786
0.00226048
0.0022265
0.00227447
0.0022852
0.00229075
0.00229512
0.00231797
0.00231587
0.00231023
0.00229404
0.00223436
0.00240268
0.00241823
0.00242516
0.00243448
0.00244275
0.00239555
0.00239377
0.00238871
0.00237296
0.00231898
0.00224325
0.00226211
0.00227038
0.00227504
0.00227723
0.00239724
0.00239219
0.00238723
0.00238529
0.00238275
0.00236259
0.00236406
0.00237144
0.00237874
0.00238393
0.00238195
0.00238033
0.00237636
0.00236748
0.00235369
0.00230085
0.00232117
0.00232856
0.0023304
0.00233051
0.00221981
0.00221669
0.00221292
0.00221156
0.00221562
0.00226821
0.00226095
0.00225632
0.00225377
0.0022527
0.00215416
0.00214863
0.00214291
0.00214422
0.00217204
0.00214588
0.00213568
0.00213792
0.00214189
0.00214458
0.00215768
0.00216206
0.002169
0.00217714
0.00217909
0.00207531
0.00206266
0.00206451
0.00206725
0.00206887
0.00202037
0.00201834
0.0020152
0.00201396
0.00202892
0.00202725
0.00202195
0.00202246
0.00202306
0.00202251
0.00205324
0.0020497
0.0020449
0.00204135
0.00204463
0.00198753
0.00200598
0.00201311
0.00202236
0.00203135
0.002039
0.00202236
0.00201537
0.00200514
0.00199409
0.00201718
0.00201811
0.00202057
0.00202248
0.00204809
0.00204615
0.00204421
0.00204026
0.00203239
0.00202678
0.00206837
0.00208298
0.00207727
0.00203365
0.00194441
0.00203198
0.00199296
0.00188294
0.00203018
0.00204281
0.00189087
0.00169968
0.0017865
0.00195641
0.00187153
0.00167776
0.00182768
0.00189013
0.0019361
0.00192527
0.0019682
0.00198176
0.00200622
0.00196059
0.0016629
0.00186038
0.00186319
0.00166204
0.0016318
0.00172274
0.00182891
0.00203311
0.00223162
0.00237263
0.00242279
0.00235654
0.00218267
0.0019378
0.00167003
0.00142834
0.00132124
0.0013757
0.00138381
0.00137923
0.00137372
0.00148174
0.00147514
0.00146854
0.00146482
0.00145623
0.00176568
0.00182385
0.00183603
0.00183348
0.00182848
0.00195237
0.00194398
0.00193462
0.00192902
0.00192235
0.00210701
0.00212419
0.00213178
0.00213846
0.00214338
0.00205262
0.00204603
0.00203935
0.002038
0.00203445
0.00218851
0.00217944
0.00217938
0.0021845
0.00218954
0.00210511
0.00210182
0.00210067
0.00210662
0.00211013
0.00220442
0.0021776
0.00216756
0.00216747
0.00216943
0.00218407
0.00218211
0.00217898
0.00217701
0.00218673
0.00230765
0.00230904
0.00230513
0.00230438
0.00230581
0.00225684
0.00225583
0.00225583
0.0022622
0.00228874
0.00221124
0.00221177
0.00220511
0.00220228
0.00220155
0.00217749
0.00217873
0.00218217
0.00219129
0.002207
0.00213123
0.00211907
0.00211823
0.0021208
0.00212312
0.00219743
0.00219731
0.0021966
0.0021936
0.00218328
0.00221847
0.00218971
0.00224593
0.00224663
0.00217692
0.00218099
0.00218548
0.00218755
0.00218769
0.00209994
0.00209784
0.00209601
0.00209953
0.00212232
0.00207808
0.0020749
0.0020778
0.00207837
0.00207793
0.00205772
0.00205658
0.00205451
0.00205204
0.00206004
0.00204428
0.002048
0.00204913
0.00204895
0.00204858
0.00199038
0.00199055
0.0019911
0.00199548
0.00201826
0.00216377
0.00215691
0.00214286
0.00213262
0.00212695
0.00209062
0.00209385
0.0021005
0.0021165
0.00216701
0.00206759
0.00207684
0.00206844
0.00206567
0.00206421
0.00206495
0.0020194
0.00202092
0.00202432
0.00203576
0.00196163
0.00197151
0.0019768
0.00198002
0.00209399
0.00209134
0.00208811
0.00207931
0.00205493
0.00194134
0.00200555
0.00212208
0.00202421
0.00193947
0.00193556
0.00210554
0.00196251
0.00195203
0.00198056
0.00199042
0.00199189
0.00199099
0.00190001
0.00189957
0.00189802
0.00189732
0.00190798
0.00195655
0.00198784
0.00199056
0.00198831
0.00198559
0.0020205
0.00202762
0.00203404
0.00202998
0.00197917
0.00196634
0.0020071
0.00202724
0.00203313
0.00203718
0.00204251
0.00200925
0.00201201
0.0020131
0.00200628
0.00194764
0.00195448
0.00196334
0.00196932
0.00206107
0.00205531
0.0020482
0.0020376
0.00202295
0.00196509
0.0020635
0.00206217
0.0020337
0.00196557
0.00178506
0.00194899
0.00191142
0.00168407
0.00164614
0.0018584
0.00179389
0.00156687
0.00180349
0.00187847
0.00194795
0.00199088
0.0018402
0.00185685
0.00190593
0.00188235
0.00185201
0.00193461
0.00199688
0.00193615
0.00205444
0.00204684
0.00199988
0.00195901
0.00187238
0.00199676
0.00194453
0.0017881
0.00207182
0.00207567
0.00205614
0.00208886
0.00202115
0.00202489
0.00199726
0.00202459
0.00166908
0.00184398
0.00188608
0.00164903
0.00171053
0.00189369
0.00194704
0.00195465
0.00183706
0.00193064
0.00187371
0.00173508
0.00173233
0.0018784
0.00191782
0.00169325
0.00173639
0.00192912
0.00193486
0.00171002
0.00179235
0.00195789
0.00198302
0.00184705
0.00173725
0.0019649
0.00193521
0.00167171
0.00189742
0.00189274
0.00186012
0.00182369
0.0017443
0.00173436
0.0017373
0.00173874
0.00195886
0.00195903
0.00195954
0.00196793
0.00202104
0.00225841
0.00219859
0.00217751
0.0021665
0.0021607
0.00194947
0.00194475
0.00194001
0.00194953
0.00202825
0.00222053
0.00219138
0.00217569
0.00216781
0.00216408
0.00211202
0.00210774
0.00210358
0.00210883
0.00216366
0.00208083
0.00205535
0.00193525
0.00190048
0.00184768
0.00183975
0.00184116
0.00184179
0.0020365
0.00203832
0.00203919
0.00203935
0.00206068
0.00224953
0.00221149
0.00219637
0.00219163
0.00219032
0.00209715
0.00209318
0.00208859
0.00209209
0.00213733
0.00228701
0.0022792
0.00227102
0.00226702
0.00226515
0.00217572
0.0021752
0.00217473
0.0021793
0.00221659
0.00220149
0.00218123
0.00209871
0.00205701
0.00198656
0.00194805
0.00194444
0.0019463
0.00194783
0.00213609
0.00213726
0.00214154
0.0021541
0.00217001
0.00224183
0.00223122
0.0022226
0.00222046
0.00222089
0.00223258
0.00223074
0.00222784
0.00222516
0.0022325
0.00225956
0.00226027
0.00226333
0.00226362
0.00226306
0.00228872
0.00239972
0.00236695
0.00225952
0.00209938
0.00199839
0.002012
0.00201865
0.00201821
0.00201594
0.00216783
0.00216426
0.0021636
0.00217082
0.00218113
0.00221774
0.00222659
0.00222923
0.00223463
0.00224036
0.0021169
0.00212033
0.0021209
0.00210879
0.00206884
0.00189679
0.00187329
0.00186954
0.00187404
0.00187893
0.00172205
0.00172652
0.00172961
0.00172242
0.00170305
0.00148905
0.0014729
0.00146442
0.00146348
0.00146471
0.00147813
0.00147525
0.00147281
0.00147525
0.001486
0.00122873
0.00122076
0.00122087
0.00122563
0.0012306
0.00120217
0.00120191
0.00120365
0.00120792
0.00120959
0.00105
0.00103511
0.0010362
0.00103862
0.00104085
0.000970845
0.000964739
0.000960672
0.000963398
0.000987359
0.00125124
0.0012745
0.00127854
0.00127313
0.00126625
0.00138946
0.00138307
0.00137669
0.00137737
0.00139516
0.00162241
0.00161707
0.00161939
0.00162504
0.00163075
0.00184313
0.00184769
0.00185127
0.00184437
0.00180421
0.0019131
0.00194667
0.00195509
0.0019557
0.00195559
0.00185138
0.00185396
0.00185492
0.00185042
0.00185217
0.00193324
0.00191658
0.00191859
0.00192231
0.00192556
0.00203507
0.00203585
0.00203604
0.00203209
0.00202139
0.00198833
0.0019692
0.00196694
0.00196716
0.00196658
0.00216837
0.00216924
0.0021743
0.00218346
0.00219257
0.00196562
0.00194456
0.0019446
0.0019475
0.00194909
0.00199596
0.00199674
0.00199772
0.00199706
0.00199298
0.00197895
0.00195308
0.00194826
0.00194771
0.0019477
0.0020871
0.00209165
0.0021009
0.00211715
0.00213058
0.00213776
0.00210376
0.00209099
0.00208591
0.00208371
0.00189797
0.00189557
0.00189185
0.00188903
0.00190188
0.00191223
0.0018983
0.00189923
0.00190104
0.00190186
0.00212332
0.00213269
0.00214923
0.00217319
0.00218126
0.00223001
0.00224079
0.00222139
0.00220527
0.00219571
0.00220145
0.00220416
0.00221105
0.0022243
0.002228
0.00230038
0.00228439
0.00228303
0.00228221
0.00228362
0.00207274
0.00206887
0.00206351
0.00206026
0.00206457
0.00193266
0.00194303
0.00198176
0.00199767
0.00201199
0.00202368
0.00205952
0.00205738
0.00205282
0.00203143
0.00214505
0.00214411
0.00214395
0.00214493
0.00212344
0.00211615
0.00211107
0.00210999
0.00212676
0.00213681
0.00205379
0.00209776
0.00198887
0.00189575
0.002142
0.00207602
0.00201529
0.00194535
0.00179856
0.00191938
0.00190246
0.00180602
0.00185148
0.00184572
0.00193516
0.00196092
0.00191049
0.00195273
0.00197476
0.00191268
0.0018196
0.00193938
0.00191722
0.00177993
0.00181462
0.00190259
0.00185964
0.00180741
0.00190718
0.00163721
0.00146307
0.00131622
0.00124299
0.00123076
0.00123913
0.00123185
0.00119775
0.00114576
0.00106873
0.000969475
0.000856359
0.000747288
0.000638098
0.000719021
0.000709757
0.000709685
0.000712375
0.000714593
0.000876801
0.000888298
0.000900804
0.000906923
0.000895339
0.000943721
0.000946578
0.000944401
0.000939404
0.00093466
0.000900531
0.000910948
0.00092144
0.000926135
0.000929704
0.00116105
0.00111704
0.0011078
0.00111073
0.00111602
0.00128317
0.00129193
0.00129972
0.00129819
0.00129218
0.00156009
0.00153981
0.00153059
0.00153157
0.00153385
0.00174087
0.00173816
0.0017387
0.00174974
0.00178321
0.00163306
0.00164119
0.00164186
0.00164003
0.00163753
0.00158424
0.00158864
0.00159142
0.00159293
0.00161453
0.00192641
0.00190414
0.00188762
0.00188299
0.00188295
0.00195617
0.00195638
0.00196024
0.00197694
0.00203189
0.00176228
0.00176794
0.00176877
0.00176792
0.00176684
0.00177033
0.00177228
0.00177489
0.00177987
0.00180186
0.00203074
0.00202615
0.00200949
0.00199974
0.00199549
0.00197734
0.00197959
0.00198576
0.00200256
0.0020501
0.0017799
0.00177239
0.0017735
0.00177544
0.00177585
0.00183829
0.00183907
0.00183987
0.00183954
0.00183868
0.00189928
0.00187439
0.00186777
0.00186494
0.00186322
0.00208115
0.00209094
0.00210711
0.0021269
0.00212374
0.00180973
0.00181301
0.00181918
0.00182218
0.0018234
0.00185564
0.00185276
0.00184574
0.00183153
0.00181583
0.0018239
0.00183994
0.00185716
0.00186864
0.0018748
0.00195932
0.00195259
0.00194101
0.00192049
0.00188791
0.00179018
0.00183345
0.00185607
0.0018674
0.00187308
0.00212106
0.00211595
0.00210766
0.00208633
0.00201548
0.0021857
0.00221626
0.00221468
0.00221136
0.0022104
0.00209369
0.00209793
0.00210158
0.0020959
0.00202526
0.00203224
0.00204342
0.00205401
0.00211077
0.00209624
0.00208009
0.00206599
0.00207148
0.00208549
0.00208836
0.00208851
0.0023194
0.00231635
0.00231326
0.00229861
0.00220059
0.0019934
0.00205915
0.00205884
0.00190918
0.00187902
0.00206201
0.00205266
0.00187445
0.00193867
0.00210284
0.00213322
0.0021459
0.00215167
0.00215769
0.00202957
0.00201895
0.00200138
0.00198133
0.00225722
0.00227908
0.00227865
0.00227837
0.00215913
0.00215417
0.0021462
0.00213117
0.00211054
0.00227799
0.00226756
0.00226671
0.00225954
0.00225539
0.00227276
0.00226869
0.00226386
0.00225401
0.00231789
0.00202777
0.00205254
0.00205343
0.00205761
0.00206472
0.00207142
0.00215008
0.00215206
0.0021528
0.00213813
0.00205062
0.00207614
0.00208549
0.00209229
0.00204317
0.0020355
0.00202689
0.00201718
0.00198709
0.00188918
0.00183008
0.00205014
0.0019965
0.00200383
0.00199924
0.00193157
0.00191729
0.00190516
0.0020743
0.00199444
0.00190309
0.00192158
0.00197179
0.00189674
0.00196168
0.00193603
0.00190438
0.00164216
0.00129702
0.000950158
0.000703741
0.000609316
0.000660158
0.000778595
0.000869469
0.000872841
0.000790447
0.000665116
0.000583404
0.000509037
0.000470493
0.000407365
0.000436243
0.000421475
0.000413473
0.00040577
0.00039945
0.000472062
0.000472898
0.00047651
0.000487609
0.000523689
0.000575102
0.000563249
0.000556266
0.000546634
0.000537049
0.000686279
0.000688246
0.000693771
0.000709681
0.000740392
0.00095225
0.000907151
0.000886604
0.000878282
0.00087444
0.000998548
0.00100659
0.00101319
0.00101522
0.00102746
0.00136377
0.0013234
0.00130429
0.00130001
0.00130129
0.00150409
0.00150618
0.00151251
0.00153396
0.00160191
0.00136248
0.00136587
0.00136494
0.00136315
0.00136207
0.00137737
0.00138198
0.00138569
0.00138976
0.00141523
0.00177605
0.00175461
0.00173278
0.00172083
0.00171619
0.0017837
0.00178608
0.00179273
0.00181243
0.00187389
0.00152545
0.00153433
0.00153577
0.00153555
0.0015345
0.00161748
0.00162033
0.00162392
0.00162969
0.00164927
0.00190472
0.00190163
0.00188193
0.00186744
0.00186023
0.00188058
0.00188749
0.00190138
0.0019242
0.00193885
0.0020194
0.00198694
0.00196683
0.00195571
0.00195035
0.00165775
0.00165631
0.00165035
0.00163806
0.00163111
0.00170245
0.00170885
0.00171872
0.00172497
0.00172737
0.00183849
0.00183584
0.0018323
0.00182835
0.00181664
0.0019157
0.00194023
0.0019449
0.00194595
0.0019464
0.00205782
0.00205735
0.00205605
0.0020501
0.0020196
0.00199415
0.0020198
0.00202534
0.00202698
0.00202701
0.00205424
0.00204616
0.00203235
0.00200865
0.00196617
0.00203398
0.0020377
0.00204728
0.00205524
0.00206008
0.00220408
0.00220945
0.0022174
0.00221903
0.00216827
0.00207463
0.00215967
0.00216807
0.00216564
0.00216332
0.00208198
0.00207836
0.00207298
0.00206458
0.0020182
0.00213205
0.00213334
0.0021295
0.00212751
0.00212965
0.00210317
0.00195865
0.00200248
0.00195936
0.00203586
0.00219033
0.00181504
0.00198518
0.00221887
0.00184555
0.00217194
0.00290367
0.00202508
0.00217425
0.00223944
0.00253988
0.00200736
0.00165208
0.00116803
0.000763373
0.000491841
0.000425815
0.000510507
0.000645947
0.000730599
0.000705635
0.000602537
0.000488188
0.000400878
0.000370321
0.000332668
0.000431663
0.000435555
0.000431944
0.000428134
0.000425768
0.000337447
0.000344061
0.000348782
0.000350104
0.000357048
0.000592985
0.000582515
0.000564674
0.00055076
0.000542298
0.000779189
0.000788525
0.000801047
0.000814119
0.000835046
0.000783109
0.000763568
0.000760461
0.000755727
0.00074991
0.00113586
0.00114592
0.00116446
0.00119361
0.00122672
0.00140109
0.00136127
0.00134413
0.00133222
0.00132437
0.0012727
0.0012766
0.00128053
0.0012854
0.00130888
0.00168725
0.00166227
0.00163581
0.00161949
0.00161136
0.00169009
0.00169564
0.00170511
0.00171984
0.0017447
0.00137365
0.00135991
0.00136331
0.00136817
0.00137102
0.00149699
0.00149693
0.0014968
0.00149743
0.00150936
0.00158805
0.00159093
0.00158956
0.00158653
0.00158399
0.00167646
0.00168457
0.00169336
0.00169303
0.00165963
0.00171438
0.00174696
0.00174348
0.00173203
0.00172094
0.00193805
0.00194563
0.00195711
0.00196109
0.00191201
0.00191953
0.0019456
0.00194858
0.00194948
0.00194951
0.00196428
0.00196301
0.00195881
0.00194879
0.00190591
0.00203798
0.00208037
0.00209193
0.00209766
0.0021012
0.00217807
0.00217943
0.00218066
0.00217656
0.00213717
0.00219268
0.00221012
0.00221462
0.00221953
0.00222354
0.00231092
0.00231716
0.00232626
0.00232345
0.00224305
0.00205323
0.00201784
0.00202734
0.00204735
0.00206177
0.00234601
0.0023424
0.00233737
0.00232974
0.00229086
0.00224451
0.00222663
0.0022258
0.00222986
0.00223279
0.00222011
0.00222629
0.00223373
0.00222789
0.00215818
0.00200728
0.00211626
0.00212488
0.00211748
0.00211038
0.00223796
0.00224469
0.00225642
0.00225211
0.00212614
0.00188566
0.00190972
0.00192123
0.00192898
0.00193354
0.00207898
0.0020831
0.0020858
0.00207687
0.00203868
0.00203579
0.00193481
0.00192137
0.00203907
0.00205419
0.001915
0.00197076
0.00198022
0.00198346
0.00198439
0.00205859
0.00206055
0.00206283
0.00206216
0.00200862
0.00196308
0.00198657
0.00195173
0.00192135
0.00190369
0.00193717
0.00195897
0.00196242
0.00189372
0.00195339
0.00199528
0.00197562
0.00197944
0.00219428
0.00207045
0.00201814
0.00207005
0.00201829
0.0019949
0.00195273
0.00186772
0.00189359
0.00196709
0.00201462
0.00201444
0.00207647
0.00204761
0.00201536
0.00201469
0.00199325
0.00199093
0.00204916
0.00211137
0.00205742
0.00202504
0.00198044
0.00193593
0.00192725
0.00198877
0.0020152
0.00200711
0.00196613
0.001989
0.00199047
0.00194424
0.00193637
0.00197705
0.00194839
0.0019185
0.00188857
0.00194163
0.00193604
0.00185444
0.00186218
0.00196375
0.00190415
0.00184178
0.00190887
0.00193022
0.0019691
0.00200228
0.00198426
0.00195537
0.00193241
0.00196186
0.00199021
0.00192896
0.00195201
0.00199549
0.00195358
0.00195646
0.00194467
0.00196156
0.00208232
0.00196863
0.00198032
0.00208074
0.00189595
0.00187157
0.00169721
0.00147384
0.00118857
0.000908626
0.000802234
0.000845116
0.00115444
0.00127056
0.00155696
0.00169938
0.0017237
0.00173594
0.00174502
0.00203484
0.00205024
0.00206738
0.00207524
0.00204231
0.00148096
0.00153596
0.00154486
0.00154504
0.00154146
0.00216711
0.00218759
0.00221362
0.00222655
0.00220388
0.00160259
0.001561
0.00155691
0.00155964
0.00156
0.0022087
0.0022295
0.00226024
0.00229171
0.00227611
0.00226869
0.00233413
0.00233697
0.00232509
0.00231364
0.00169267
0.00169473
0.00169262
0.00168603
0.00166579
0.00160475
0.00164388
0.00164176
0.00163852
0.00163572
0.00202544
0.00203499
0.00204809
0.00206777
0.00214405
0.00166536
0.00161419
0.00161001
0.0016121
0.00161108
0.00173677
0.00173873
0.00174197
0.00175148
0.00179255
0.00217491
0.0020879
0.00205963
0.00204682
0.00203915
0.00196224
0.00197085
0.00198668
0.00201537
0.00204773
0.00211663
0.00203385
0.00201159
0.00200398
0.00200048
0.00196626
0.00197073
0.0019819
0.00200597
0.00204998
0.0020078
0.00195978
0.00195347
0.00195585
0.00195873
0.00172133
0.00167906
0.00167435
0.00167469
0.00167359
0.00174564
0.00174601
0.00174506
0.00174706
0.00177388
0.00204713
0.0020151
0.00199409
0.00198437
0.00198119
0.00195236
0.00195011
0.00195088
0.00196791
0.00204713
0.00204395
0.00204032
0.00204323
0.00204387
0.00204321
0.00209221
0.00209226
0.00209192
0.00208986
0.00208766
0.00216027
0.00207446
0.00192192
0.00171203
0.00161686
0.00160858
0.00161057
0.0016088
0.00160528
0.00183847
0.00184004
0.00184503
0.00186365
0.00189963
0.00190786
0.00188541
0.00187482
0.00187355
0.00187472
0.00167728
0.00168224
0.00168692
0.00168392
0.00167465
0.00151824
0.001496
0.00148214
0.00147693
0.00147507
0.00124328
0.0012439
0.0012488
0.00126536
0.00129482
0.00125
0.00122942
0.00122111
0.00121994
0.00122063
0.00106665
0.00107506
0.00108348
0.00108574
0.00108252
0.00114151
0.00117
0.00116964
0.00115848
0.00114702
0.000820258
0.000818042
0.000817509
0.000823714
0.000845139
0.000878211
0.000859832
0.000859772
0.000863921
0.000867162
0.000815053
0.000816553
0.000819248
0.000825606
0.00084541
0.00085814
0.000868453
0.000861886
0.000850279
0.000840645
0.000593618
0.00059176
0.000590216
0.000592607
0.000608073
0.000601052
0.000565804
0.000560136
0.000560789
0.000561985
0.00055774
0.000560753
0.000564643
0.000570223
0.000587615
0.000594726
0.000589124
0.000581023
0.000570951
0.000562364
0.000598039
0.000597792
0.000599422
0.000608611
0.000641973
0.000779385
0.000747558
0.000737899
0.000736759
0.00073721
0.000648172
0.000566262
0.000597463
0.000577113
0.000568995
0.000563361
0.000559145
0.000478028
0.000471457
0.000507908
0.00051033
0.000506527
0.000499971
0.000494183
0.000481088
0.000479211
0.000478804
0.000484546
0.000514765
0.000461936
0.000455076
0.000451627
0.000447144
0.000443119
0.000388439
0.000388455
0.000389122
0.000392312
0.000405668
0.000346884
0.000334531
0.000331275
0.000332618
0.000334317
0.000375344
0.000377563
0.000381777
0.000392471
0.00041933
0.000446321
0.000435487
0.000430742
0.000423362
0.000416085
0.000564688
0.00056801
0.000576197
0.000593892
0.000623222
0.000839691
0.000790252
0.000770719
0.000760747
0.000754499