/*--------------------------------*- C++ -*----------------------------------*\
  =========                 |
  \\      /  F ield         | OpenFOAM: The Open Source CFD Toolbox
   \\    /   O peration     | Website:  https://openfoam.org
    \\  /    A nd           | Version:  7
     \\/     M anipulation  |
\*---------------------------------------------------------------------------*/
FoamFile
{
    version     2.0;
    format      ascii;
    class       volVectorField;
    location    "6";
    object      wallShearStress;
}
// * * * * * * * * * * * * * * * * * * * * * * * * * * * * * * * * * * * * * //

dimensions      [0 2 -2 0 0 0 0];

internalField   uniform (0 0 0);

boundaryField
{
    outlet1
    {
        type            calculated;
        value           uniform (0 0 0);
    }
    Wall
    {
        type            calculated;
        value           nonuniform List<vector> 
40276
(
(0.000413724 4.9807e-05 0.000170317)
(-0.000186899 -8.4698e-06 0.000415686)
(-0.000190603 -7.72768e-06 0.000407597)
(0.000104767 -3.05061e-05 0.000157104)
(8.76507e-05 1.97995e-06 0.000152448)
(8.21084e-05 4.9469e-05 0.000158205)
(9.63905e-05 4.89867e-05 0.000169187)
(0.000138114 3.61323e-05 0.000192053)
(0.000107831 2.32257e-05 0.000175602)
(0.000102926 1.19568e-05 0.000175199)
(0.000395584 3.95897e-05 0.000420051)
(0.000478257 1.66473e-05 0.000456115)
(0.000584383 4.10189e-05 0.00093916)
(0.00056257 4.03179e-05 0.000870257)
(0.000473913 -1.4244e-05 0.00032754)
(0.000424121 2.9618e-06 0.000357122)
(0.000387328 2.27735e-05 6.62275e-05)
(0.000347801 2.47124e-05 3.02234e-05)
(-9.99535e-05 -1.37343e-05 -0.000153083)
(-0.000107486 -4.29933e-05 -0.000170163)
(-0.000152237 3.85059e-05 0.000211912)
(-0.000183269 4.35106e-05 0.000198876)
(-0.000119231 3.20815e-05 6.80996e-05)
(-0.0001381 2.95301e-05 6.44312e-05)
(-9.99063e-05 2.36867e-05 4.35146e-05)
(-0.000112216 2.4742e-05 3.77308e-05)
(-0.000121377 4.05465e-05 2.10735e-05)
(-0.000119004 4.09798e-05 1.53477e-05)
(-0.000179256 5.78521e-05 3.25396e-05)
(-0.00016057 4.95572e-05 2.37798e-05)
(-0.000121641 3.97226e-05 7.27833e-05)
(-0.000136323 4.76501e-05 8.03602e-05)
(-5.25691e-05 -3.17309e-06 0.000159668)
(-4.68119e-05 -4.86186e-06 0.000148398)
(-6.11399e-05 1.02274e-05 7.91242e-06)
(-6.01147e-05 1.16035e-05 7.48821e-06)
(0.000570563 6.43161e-05 0.00020263)
(0.000619511 4.47281e-05 0.000221083)
(0.00106898 0.000257562 0.000382603)
(0.00121303 0.000332809 0.000405241)
(0.000992042 5.99431e-05 0.00014398)
(0.000947741 3.14346e-05 0.000170805)
(-4.79726e-05 -1.44229e-05 -0.000391835)
(-2.76173e-05 -1.10733e-05 -0.000357018)
(-5.1663e-05 -2.00662e-06 -0.000357933)
(-4.4019e-05 -6.22281e-06 -0.000296009)
(-7.33829e-05 -2.39513e-07 -0.000304022)
(-5.63713e-05 -3.19474e-06 -0.000246937)
(-6.60186e-05 -7.7028e-07 -0.000214218)
(-6.4719e-05 1.17257e-06 -0.000179705)
(-5.34889e-05 -1.21581e-06 -0.000148843)
(-6.5905e-05 1.50202e-06 -0.000156119)
(-5.75014e-05 -1.99765e-07 -0.000125931)
(-6.0683e-05 2.40931e-06 -0.000127467)
(0.000441145 8.00953e-05 0.000256497)
(0.000459203 9.40343e-05 0.000225242)
(-1.96744e-05 1.4138e-05 0.000134845)
(6.40652e-05 2.19746e-05 0.000190933)
(-1.27487e-05 9.52028e-06 0.000137746)
(-0.000467414 -0.000136198 -0.000447262)
(-0.000495353 -0.000113083 -0.000456247)
(1.90446e-05 3.45099e-05 0.000291321)
(-1.27869e-05 -1.18176e-05 0.000225186)
(9.46467e-06 -9.14872e-07 -4.22756e-05)
(1.21542e-05 2.58198e-06 -3.86778e-05)
(6.09229e-06 2.68916e-08 -3.8034e-05)
(1.89767e-06 -2.37441e-06 -3.69015e-05)
(1.02687e-05 8.17724e-08 -3.93742e-05)
(-0.000118204 -1.82911e-05 -0.00010762)
(-0.000130317 -7.54065e-06 -0.00011687)
(-5.56395e-05 4.55765e-06 -0.000105471)
(-5.63431e-05 3.70741e-08 -0.000107356)
(-1.97062e-05 1.48617e-06 -2.03434e-05)
(-1.97141e-05 1.50114e-06 -1.99527e-05)
(-1.77825e-05 1.55879e-06 -1.93748e-05)
(-1.69183e-05 1.90906e-06 -1.86227e-05)
(-1.92559e-05 8.68412e-07 -1.92839e-05)
(2.2204e-05 -1.52561e-06 -6.73734e-06)
(1.92118e-05 -1.61706e-06 -1.04211e-05)
(-2.96182e-07 4.37609e-06 1.9049e-07)
(5.09288e-07 -7.21048e-08 1.48338e-07)
(8.11933e-06 -8.69195e-07 -4.51737e-07)
(1.93307e-05 3.80449e-07 1.3282e-05)
(1.87375e-05 4.24642e-07 1.36233e-05)
(2.78389e-05 -2.4546e-06 1.95629e-05)
(5.56957e-06 4.81094e-07 -3.31277e-05)
(1.62003e-06 -1.62236e-06 -3.18774e-05)
(4.74775e-06 8.64682e-07 -2.84364e-05)
(2.51595e-05 -2.56354e-06 1.81743e-05)
(2.46856e-05 -2.27613e-06 1.78578e-05)
(2.13113e-05 -1.64129e-06 1.59249e-05)
(-4.39458e-05 -4.79702e-06 -3.97666e-05)
(9.71172e-07 -9.95452e-07 -2.74299e-05)
(3.94001e-06 1.11486e-06 -2.44623e-05)
(5.60553e-07 -4.925e-07 -2.37314e-05)
(1.06773e-07 -2.71914e-07 -2.03942e-05)
(-3.4061e-07 5.42101e-08 -1.75503e-05)
(-1.00692e-06 1.81826e-07 -1.55795e-05)
(-4.09658e-06 -2.59184e-07 -1.23436e-05)
(-4.74674e-06 -9.97746e-08 -1.15995e-05)
(-5.56962e-06 -4.03082e-09 -1.13501e-05)
(-8.7852e-06 -2.46349e-07 -1.23136e-05)
(-9.09272e-06 -1.86727e-07 -1.2866e-05)
(-4.93585e-05 -9.98055e-07 -4.33063e-05)
(-9.43462e-06 -3.06742e-08 -1.38218e-05)
(-1.84257e-05 -4.29593e-06 -2.24704e-05)
(-1.53455e-05 -4.25425e-06 -1.79467e-05)
(-9.3896e-06 -1.17216e-07 -1.45573e-05)
(-9.37435e-06 2.93297e-08 -1.56857e-05)
(-9.02634e-06 -5.20874e-07 -1.61342e-05)
(-9.25709e-06 3.56478e-08 -1.72028e-05)
(-8.75828e-06 -5.82846e-07 -1.80311e-05)
(-8.27399e-06 -2.53225e-07 -1.84905e-05)
(-8.03886e-06 -1.00298e-06 -2.00252e-05)
(-7.78686e-06 -1.56849e-06 -1.88167e-05)
(4.09072e-06 -8.93505e-07 -2.62937e-05)
(3.91648e-06 -2.89002e-06 -2.77187e-05)
(2.41324e-06 -2.90575e-06 -2.61887e-05)
(-0.000276221 -6.29236e-05 0.000486648)
(-0.000279216 -6.14058e-05 0.000441291)
(-1.4372e-05 -1.24171e-06 5.41374e-06)
(-1.23023e-05 -1.43176e-06 6.82863e-06)
(-4.06254e-05 -1.86658e-06 1.69326e-05)
(-3.49344e-05 -3.15371e-06 1.56329e-05)
(-4.28139e-06 -9.36736e-06 -5.31314e-06)
(-2.05278e-06 -9.23848e-06 -2.6526e-06)
(-0.000127456 2.53394e-05 0.000184012)
(-0.00011067 3.40744e-05 0.000156501)
(-0.000160183 -1.7572e-05 0.000274271)
(-0.000139962 -2.36212e-05 0.000236103)
(-0.000102909 -6.00563e-06 0.000172788)
(-9.00401e-05 -9.06355e-06 0.000148718)
(-0.0001565 9.39931e-05 0.000467351)
(-0.000216982 0.000169331 0.000653376)
(7.50997e-06 -1.1908e-05 0.000188623)
(-1.13762e-06 -4.65814e-06 0.000159378)
(-0.000102127 2.75633e-05 0.000193044)
(-5.57465e-05 1.31083e-06 0.00016747)
(-0.000180413 -5.65052e-05 0.000491128)
(-0.000180205 -3.94696e-05 0.000491792)
(-0.000180052 -4.46464e-05 0.000525836)
(-0.000195929 -2.08293e-05 0.000527419)
(-0.000560002 1.80718e-06 -0.000151449)
(-0.000642588 2.51242e-06 -0.000183641)
(-2.27556e-05 -7.96783e-05 9.95803e-06)
(-2.65498e-05 -7.89421e-05 1.19241e-05)
(-2.14519e-05 -4.38726e-05 6.54945e-05)
(-2.52153e-05 -5.36615e-05 8.18354e-05)
(-2.90517e-05 -5.25562e-05 6.60918e-05)
(-2.32213e-05 -4.04597e-05 5.37529e-05)
(-1.54688e-05 -8.61463e-05 8.48785e-06)
(-1.98961e-05 -9.83539e-05 6.53326e-06)
(-2.34961e-05 -8.34771e-05 8.8194e-06)
(-2.18836e-05 -8.64846e-05 9.21276e-06)
(-2.31359e-05 -0.000128636 -1.56103e-05)
(-1.99742e-05 -0.000111411 -1.41257e-05)
(-7.64302e-06 -5.66218e-05 -3.31689e-06)
(-9.87889e-06 -5.05372e-05 -4.75771e-06)
(-6.09799e-05 -3.12266e-05 9.45463e-05)
(-5.57683e-05 -3.30524e-05 8.93469e-05)
(8.92074e-05 3.89894e-06 -0.000234)
(9.71166e-05 -4.98219e-06 -0.000218753)
(-0.000137187 -5.9438e-05 -1.25066e-05)
(-0.000136013 -6.64227e-05 -1.47009e-05)
(-0.000298924 -4.80645e-05 0.0001465)
(-0.000320845 -5.2214e-05 0.00013779)
(-0.000291652 -7.45039e-05 -2.60566e-05)
(-0.000285019 -6.17286e-05 -3.52603e-05)
(-0.000173774 0.0001931 0.000236613)
(-0.000167596 0.000241689 0.000219688)
(-0.000249115 -4.48508e-05 1.31768e-05)
(-0.000131164 -4.67421e-05 -1.84878e-05)
(-0.000206901 -7.75848e-05 7.47359e-05)
(-0.000178254 -7.60092e-05 6.3196e-05)
(-0.000227757 -5.19517e-05 5.88593e-05)
(-6.74199e-05 -4.2248e-05 -7.10627e-06)
(-3.91092e-05 -2.0914e-05 6.05109e-05)
(-3.2229e-05 -1.93919e-05 5.58647e-05)
(0.000567494 -0.000226073 0.000419664)
(0.000516989 -0.000196454 0.000348628)
(0.000503839 -0.000284323 0.000228757)
(0.000470196 -0.000208394 0.000258234)
(0.000481022 -0.000244218 0.000253145)
(0.000251335 -0.000170234 0.000185464)
(0.000347655 -0.000226707 0.000216741)
(0.00027271 -0.000169739 0.000198688)
(0.000444592 -0.000205407 0.000353335)
(0.000470468 -0.000251934 0.000337854)
(0.00046166 -0.000244389 0.000291004)
(0.000362203 -0.000247488 0.000188097)
(0.000465663 -0.000295388 0.000186823)
(0.000388194 -0.000221268 0.000240379)
(0.000153433 -8.93007e-05 0.000160665)
(0.000244217 -0.000172466 0.000185215)
(0.000189104 -0.000106462 0.000181608)
(0.000142395 -7.50163e-05 0.000165288)
(7.67214e-05 3.10189e-05 0.000152445)
(0.000276195 0.00010812 4.96508e-05)
(0.000335917 0.000107846 9.87081e-05)
(0.000287803 7.27543e-05 0.000110227)
(0.000304574 5.82023e-05 5.07891e-05)
(0.000363847 6.20336e-05 9.89998e-05)
(0.000327903 9.66763e-05 9.35603e-05)
(0.000295207 7.30036e-05 7.19352e-05)
(9.8004e-05 4.66587e-05 0.000101833)
(0.000111908 5.77873e-05 9.82537e-05)
(9.56984e-05 6.33075e-06 0.000151905)
(9.94856e-05 1.02869e-05 0.000152233)
(0.00011472 5.02197e-06 0.000174012)
(9.4261e-05 -2.54847e-06 0.000154548)
(0.000103471 2.51841e-05 0.000150694)
(8.24802e-05 2.8946e-05 0.000117743)
(7.6577e-05 3.02213e-05 8.89681e-05)
(7.24803e-05 9.82265e-06 0.000107077)
(6.93671e-05 1.20078e-06 0.000120482)
(4.89953e-05 -9.87923e-06 9.58788e-05)
(6.47948e-05 -1.43811e-05 0.000112817)
(5.49058e-05 8.66064e-06 8.36548e-05)
(4.37163e-05 5.62929e-06 7.06617e-05)
(4.84654e-05 2.93594e-06 8.00484e-05)
(0.000148115 8.56583e-05 5.81111e-05)
(0.000177208 9.53597e-05 7.39152e-05)
(0.000181369 8.66597e-05 8.43229e-05)
(0.000173858 8.28016e-05 5.42233e-05)
(0.000109553 5.92175e-05 8.6715e-05)
(0.000124299 6.82388e-05 6.10745e-05)
(0.000132146 7.51913e-05 3.86524e-05)
(0.000134393 6.46129e-05 4.7677e-05)
(0.000117297 6.08994e-05 5.42385e-05)
(0.000259003 0.00010566 4.30055e-05)
(0.00021159 9.89434e-05 4.06237e-05)
(0.000276301 9.80812e-05 5.61808e-05)
(0.000252552 7.20769e-05 4.17177e-05)
(0.00022301 9.26106e-05 2.87683e-05)
(0.000205518 7.06397e-05 3.43045e-05)
(7.71978e-05 3.92704e-05 6.46545e-05)
(8.20819e-05 3.8885e-05 6.75131e-05)
(6.48872e-05 2.43034e-05 7.6682e-05)
(9.75528e-05 5.57559e-05 5.44474e-05)
(5.36457e-05 1.89092e-05 6.29041e-05)
(6.43816e-05 3.53057e-05 4.30882e-05)
(0.000110196 5.72087e-05 6.1633e-05)
(0.00014521 7.39771e-05 3.12861e-05)
(6.89216e-05 4.38214e-05 1.48716e-05)
(8.16183e-05 4.31717e-05 3.10852e-05)
(7.03133e-05 4.32455e-05 2.55256e-05)
(0.000130815 7.62165e-05 1.14879e-05)
(0.000162625 8.13981e-05 -8.02895e-06)
(0.00014831 5.74586e-05 2.75399e-05)
(0.000144296 7.01908e-05 1.58788e-05)
(0.000312439 2.77119e-05 0.000546089)
(0.00035039 5.65569e-05 0.000635336)
(0.000318158 -1.66882e-06 0.000567389)
(0.000329465 2.83602e-05 0.000582849)
(0.000360119 0.000100751 0.000402473)
(0.000390611 0.000106669 0.000479487)
(0.000279377 9.62074e-05 0.00039469)
(0.000305851 9.06206e-05 0.000452396)
(0.000294947 0.000104986 0.000444338)
(0.000276963 8.7007e-05 0.000457844)
(0.000393312 0.000156436 0.000511799)
(0.000330004 0.000132687 0.00038524)
(0.000377041 0.000139039 0.000480832)
(0.000239356 9.01412e-05 0.000391623)
(0.000321532 0.000116479 0.000489024)
(0.000410359 0.000131048 0.000390199)
(0.000365779 0.000135003 0.00045753)
(0.000359537 0.000132257 0.000459523)
(0.000411558 0.00013479 0.000566526)
(0.00042794 0.00016953 0.00050244)
(0.000470849 0.000183531 0.000499688)
(0.000460967 0.000190272 0.000469953)
(0.000451116 0.000157986 0.000562301)
(0.000436048 0.0001624 0.000562439)
(0.000406669 7.48616e-05 0.000475444)
(0.000520559 8.05965e-05 0.000507874)
(0.000398584 9.43164e-05 0.000488821)
(0.000306829 9.55245e-05 0.000380577)
(0.000388042 9.22645e-05 0.00047564)
(0.000424345 7.19683e-05 0.000415113)
(0.000318058 5.70174e-05 0.000311613)
(0.000342326 0.000102963 0.000372288)
(0.000368524 8.5119e-05 0.000362237)
(0.000371823 9.5188e-05 0.000352778)
(0.000502699 -4.1681e-05 0.000442021)
(0.000518446 -6.0137e-05 0.000439654)
(0.000533345 -0.000143691 0.000423474)
(0.000414477 -6.43129e-05 0.000377886)
(0.000499065 -0.000123089 0.000329688)
(0.000390139 -9.59553e-06 0.000347193)
(0.000543506 -0.000134083 0.000356768)
(0.000369264 -2.90172e-05 0.000294997)
(0.000477945 -0.000102741 0.000283557)
(0.000563716 -0.000217528 0.000269631)
(0.000347118 5.8769e-05 0.000360772)
(0.000346901 8.69757e-05 0.000377641)
(0.000386857 2.42054e-05 0.000312218)
(0.000383337 6.434e-05 0.000328989)
(0.000400973 0.000144325 0.000384662)
(0.000432564 0.000148942 0.000515714)
(0.000431761 0.000147534 0.000464205)
(0.000447627 0.00012898 0.00037785)
(0.000502608 0.000164012 0.000420901)
(0.000498613 0.000190138 0.000528868)
(0.000446766 0.000157108 0.000526458)
(0.000473361 0.000155395 0.000556635)
(0.000473574 0.00017313 0.000400824)
(0.000454211 0.000159919 0.000529438)
(0.000454428 0.000164708 0.000529213)
(0.000572321 0.000207571 0.000660057)
(0.000547399 0.000195998 0.000516651)
(0.00040628 0.00011813 0.000372598)
(0.000575099 0.000181333 0.000424016)
(0.000457699 0.000105324 0.0003928)
(0.000587625 0.000148431 0.00039869)
(0.000515936 0.000179128 0.00044084)
(0.000521869 0.000164293 0.000513881)
(0.000697293 0.000262929 0.000525733)
(0.000553444 0.0001882 0.00043196)
(0.000529903 0.000161102 0.000455963)
(0.000739253 0.000260629 0.000482846)
(0.000567647 0.000245279 0.00048516)
(0.000604733 0.00020923 0.000594556)
(0.000560409 0.000181752 0.000628392)
(0.00066312 0.000226474 0.000620594)
(0.000662241 0.000232558 0.000599529)
(0.000349278 0.000138647 0.000458108)
(0.000341413 0.000129753 0.000453807)
(0.000234396 6.92604e-05 0.000427212)
(0.000338789 0.000127671 0.000491218)
(0.000425515 0.000119603 0.00063537)
(0.000389369 0.000109859 0.000585212)
(0.000376595 0.000144141 0.000491964)
(0.000396397 0.000152314 0.000512079)
(0.000379699 0.000145836 0.000560233)
(0.000360514 6.08868e-05 0.000645694)
(0.000311299 4.1226e-05 0.000578479)
(0.000366084 0.000106714 0.000607624)
(0.000348309 9.4067e-05 0.000600118)
(0.00031165 4.06066e-05 0.000506158)
(0.000422458 0.000168203 0.000537722)
(0.000447246 0.000137312 0.000626087)
(0.000398837 0.000120782 0.00060863)
(0.000384238 -6.41627e-06 0.000635286)
(0.000474256 0.000141991 0.000712235)
(0.000356202 5.70365e-05 0.000607444)
(0.000461503 0.000183713 0.000526547)
(0.000501062 0.000193155 0.000566082)
(0.000446812 0.000139273 0.000627988)
(0.000436156 0.000172679 0.000560442)
(0.000504163 0.000201656 0.000565322)
(0.000501916 0.000125096 0.000696414)
(0.000511671 0.000142563 0.000781466)
(0.000407498 4.50408e-05 0.000675267)
(0.000373971 4.43748e-05 0.00061314)
(0.000405742 7.52066e-05 0.00064833)
(0.000461014 0.000128423 0.000687889)
(0.000393535 7.20517e-05 0.000606993)
(0.000512024 0.000216579 0.000602814)
(0.000511414 0.000103857 0.000749684)
(0.00059135 0.000189696 0.000851403)
(0.000280189 1.0817e-05 0.00048941)
(0.000291658 5.40537e-05 0.000499178)
(0.000355294 0.000130727 0.00055595)
(0.000374317 8.28816e-05 0.000633912)
(0.000352112 2.5537e-05 0.000583962)
(0.000435776 9.25045e-05 0.000692271)
(0.000334005 -1.27534e-05 0.000564694)
(0.000336503 3.90296e-05 0.000557158)
(0.000428951 0.000142594 0.000674334)
(0.000357457 4.53517e-05 0.000608124)
(0.00031201 3.65141e-05 0.000523567)
(0.00038025 -4.81181e-06 0.000627305)
(0.000329628 4.22446e-05 0.000553552)
(0.000351868 4.56608e-05 0.000579986)
(0.000427538 4.22013e-05 0.0006985)
(0.000333939 8.73169e-05 0.000574238)
(0.000333073 5.91928e-05 0.000561336)
(0.000424331 -5.79373e-05 0.000650319)
(0.000477569 0.000127751 0.00075207)
(0.00041021 -2.24564e-05 0.000691092)
(0.000522649 6.51952e-05 0.000854535)
(0.000399057 1.14966e-05 0.000666893)
(0.00041943 3.32672e-05 0.000684643)
(0.000528478 0.000159327 0.000767487)
(0.000423605 5.32672e-05 0.000677034)
(0.000483832 3.49467e-05 0.000770406)
(0.000521098 4.4946e-05 0.000853858)
(0.000530739 1.92537e-05 0.000851909)
(0.000419228 3.59897e-05 0.000671652)
(0.000473666 4.17174e-05 0.000751664)
(0.000423593 1.62819e-05 0.000672727)
(0.000482843 4.9832e-05 0.000764392)
(0.00054606 0.000173934 0.000687661)
(0.000534847 0.00019111 0.000616278)
(-2.10076e-05 -4.91171e-05 0.000160229)
(0.000564399 0.00015182 0.00077618)
(0.000490531 0.000136966 0.00066652)
(0.000614661 0.000226458 0.000667118)
(0.000572796 0.00021983 0.000601728)
(0.000608771 0.000213316 0.000676606)
(-2.52659e-05 -4.87922e-05 0.000159669)
(0.000543223 0.000171704 0.000713331)
(0.000562061 0.000206149 0.000658182)
(0.000609131 0.000226923 0.00068739)
(0.000555055 0.000166716 0.000766066)
(0.000623774 0.000176279 0.000912435)
(-2.2906e-05 -4.85732e-05 0.000156946)
(0.000467231 6.95509e-05 0.000729215)
(0.000432778 6.16465e-05 0.000709898)
(0.000465979 9.4127e-05 0.000706352)
(0.000525966 5.87819e-05 0.000795015)
(0.00046349 0.000105293 0.000703518)
(-2.53761e-05 -3.80845e-05 0.000159959)
(0.000574874 0.000234027 0.000664315)
(0.000594306 0.000120435 0.00083772)
(0.000682042 0.000216055 0.000930582)
(0.00065482 0.000217778 0.000775132)
(0.000715024 0.000251975 0.000650388)
(0.000772976 0.000285682 0.000656069)
(0.000644509 0.000188907 0.000834175)
(0.000603046 0.000173687 0.000747864)
(0.000632901 0.000257059 0.000626916)
(0.000666704 0.000236879 0.000680029)
(0.000642551 0.000203658 0.000760684)
(0.00071114 0.000244131 0.000810494)
(0.000737534 0.000282744 0.000778875)
(0.000658473 0.000204666 0.000838317)
(0.000684599 0.000170366 0.00094163)
(0.000560892 0.000135645 0.00078507)
(0.000627615 0.0001397 0.000976358)
(0.000509627 0.000102846 0.000754271)
(0.000588044 8.12811e-05 0.000889479)
(0.000731661 0.000241537 0.000927602)
(0.000606964 0.000195046 0.000769278)
(0.00064711 0.000169428 0.000923005)
(0.000540242 9.08108e-05 0.00087092)
(0.000558577 0.000149029 0.000792054)
(0.000731926 0.000133431 0.00102669)
(0.000640388 0.000146009 0.000994088)
(0.000590917 6.60687e-05 0.000948601)
(0.000591717 2.17765e-05 0.000942731)
(0.000475115 2.9045e-05 0.000788329)
(0.000467196 6.40044e-05 0.000734455)
(0.000602249 0.000120392 0.000871339)
(0.000616113 0.000128203 0.00096225)
(0.000577589 2.84793e-05 0.000904619)
(0.000594586 4.07454e-05 0.00093614)
(0.000603296 -3.62679e-05 0.000938016)
(0.000583638 4.19723e-05 0.000893966)
(0.000670578 0.000132713 0.000973314)
(-3.13501e-05 -4.31837e-05 0.000168347)
(0.000503046 -4.64352e-07 0.00082323)
(0.000457502 5.68495e-05 0.000720474)
(0.000651824 0.000153917 0.000959852)
(0.000681496 0.000193321 0.00102003)
(0.000567416 -2.97485e-07 0.000947318)
(0.000708775 6.67986e-05 0.00111831)
(0.000528533 4.51166e-05 0.000831128)
(0.000651521 3.3273e-05 0.000999498)
(0.000521386 5.78051e-05 0.00082539)
(0.000501572 -1.32972e-05 0.000765393)
(0.000643278 -8.69431e-05 0.000954279)
(0.000693887 3.70007e-05 0.00109943)
(0.000694129 6.86744e-06 0.00108885)
(0.000363432 -5.09253e-05 0.000528069)
(0.000285725 1.93434e-05 0.000442621)
(0.000319933 9.36646e-06 0.000458818)
(0.000308768 9.18375e-06 0.000471765)
(0.000221987 3.96531e-05 0.00039633)
(0.000294829 2.7662e-05 0.000456483)
(0.000376608 3.02235e-06 0.000489233)
(0.000295034 4.60318e-05 0.000461271)
(0.000345968 4.4154e-05 0.000614399)
(0.000347379 6.07633e-05 0.000588638)
(-2.31184e-05 -4.18228e-05 0.000153523)
(-2.67865e-05 -4.38555e-05 0.000160422)
(-2.47865e-05 -4.05214e-05 0.000148599)
(-2.62692e-05 -3.6843e-05 0.000149462)
(0.000387871 3.31112e-05 0.000607062)
(0.000350985 7.46827e-05 0.000556453)
(0.000417358 1.48704e-05 0.000560254)
(0.000373937 3.21371e-05 0.000503216)
(0.000393337 -1.16294e-05 0.000509191)
(0.000389766 5.41995e-06 0.000480878)
(-2.97114e-05 -3.62338e-05 0.000154839)
(0.000410712 2.14899e-06 0.000529266)
(-3.50346e-05 -2.89057e-05 0.000164916)
(-3.01265e-05 -3.46146e-05 0.000155929)
(0.000433804 1.3301e-05 0.00022209)
(0.000430479 1.70337e-05 0.000267229)
(0.000411579 -1.20566e-05 0.000255335)
(-3.34668e-05 -3.44584e-05 0.000153957)
(-2.65202e-05 -3.83396e-05 0.000164593)
(-2.59156e-05 -4.18789e-05 0.000161136)
(-3.23194e-05 -3.37805e-05 0.000175029)
(-3.38612e-05 -4.23206e-05 0.000182637)
(-2.97035e-05 -3.03052e-05 0.000166642)
(-2.85667e-05 -2.62558e-05 0.000159443)
(-3.4665e-05 -3.44978e-05 0.00015903)
(0.000382641 6.2947e-05 7.79752e-05)
(0.000442098 6.34021e-05 0.00013989)
(0.00036424 3.34997e-05 8.56807e-05)
(0.000349908 6.56537e-05 6.63086e-05)
(0.000366278 4.73566e-05 8.94709e-05)
(0.000425876 1.26223e-05 0.000130597)
(0.000412108 1.38493e-05 0.00018935)
(0.000440481 -2.73336e-05 0.000199287)
(0.000433452 2.66842e-06 0.000166516)
(0.000412955 1.81812e-06 0.000205959)
(0.000402487 3.03309e-05 9.65427e-05)
(0.000420328 -5.59288e-06 0.000103317)
(0.00042673 -7.76331e-06 0.000379382)
(0.000404663 6.64757e-06 0.000412853)
(0.000394791 -1.50428e-06 0.000431417)
(0.000356205 6.51217e-06 0.000414183)
(0.000386479 3.199e-06 0.00045241)
(0.000324577 2.44921e-05 0.000420594)
(0.000454963 -2.36315e-06 0.000412135)
(0.000461753 -2.33777e-05 0.000353774)
(0.000463578 -1.28779e-05 0.000338784)
(0.000404711 -3.42064e-06 0.00034958)
(0.000388271 -2.08888e-05 0.000441183)
(0.000402689 -1.30526e-05 0.00039588)
(0.000428216 2.27895e-05 0.000508735)
(0.00049126 -3.15249e-05 0.000252087)
(0.00045723 -4.81904e-05 0.000335328)
(0.000466419 -4.94516e-05 0.000281901)
(0.000480377 -3.16968e-05 0.000353681)
(0.00051258 -8.12086e-05 0.000235061)
(0.000454092 -4.50201e-05 0.000387286)
(0.000424784 -4.0407e-05 0.000448874)
(0.000463417 -6.78137e-05 0.000430024)
(0.000467353 -1.32205e-05 0.000517317)
(0.000546514 -9.51462e-05 0.000413903)
(0.000507727 -9.706e-05 0.000342515)
(0.000518055 -8.76682e-05 0.000278015)
(0.000504609 -6.45631e-05 0.000348013)
(0.000449186 -4.56501e-05 0.000183281)
(0.000445155 -3.69433e-05 0.000147625)
(0.000477266 -3.97216e-05 0.000187636)
(0.000322433 7.35451e-05 3.68507e-05)
(0.000333574 5.71213e-05 6.33357e-05)
(0.000286501 8.15024e-05 1.56154e-05)
(0.000312193 6.90657e-05 3.36747e-05)
(0.000355614 3.23157e-05 5.61718e-05)
(0.000401094 8.99368e-07 7.89168e-05)
(0.000329918 4.62858e-05 5.48841e-05)
(0.000218705 7.96025e-05 2.89479e-06)
(0.000301977 8.77512e-05 1.91469e-05)
(0.000136275 6.60618e-05 4.1176e-05)
(0.00014787 6.42797e-05 1.80927e-05)
(0.000249735 9.46067e-05 1.10922e-05)
(0.000264718 7.09715e-05 4.73923e-05)
(0.000243707 3.95643e-05 -1.28248e-05)
(0.000286857 4.89262e-05 3.29191e-05)
(0.000345851 3.81076e-05 2.28966e-05)
(0.000241654 7.53851e-05 9.25818e-06)
(0.000231968 5.42745e-05 1.39034e-05)
(0.000310501 5.44741e-05 2.03956e-05)
(0.000577591 -0.000129646 0.00020338)
(0.000565401 -0.000134079 0.000356244)
(0.000551154 -0.00013145 0.000283242)
(0.000578197 -0.000120677 0.000360852)
(0.000456799 -2.60676e-05 0.000118349)
(0.000500888 -9.78987e-05 0.000181167)
(0.000460372 -4.97263e-05 0.000158856)
(0.000465814 -7.01925e-05 0.000162769)
(0.000416085 -1.44033e-05 7.55996e-05)
(0.000451876 -5.46373e-05 0.000111454)
(0.000538269 -0.000106213 0.00014616)
(0.000583632 -0.000123813 0.00018378)
(0.000610466 -0.000190497 0.000252461)
(0.000573337 -0.000131401 0.000175589)
(0.000547292 -0.000138836 0.000205564)
(0.000382575 1.73731e-05 4.52858e-05)
(0.00039473 -6.49629e-06 4.61208e-05)
(0.00042545 -5.5356e-05 0.000102243)
(0.000397363 -6.91049e-06 7.4058e-05)
(0.00041279 -3.33492e-05 6.52607e-05)
(0.000325893 3.40611e-05 4.88072e-05)
(0.000373369 -3.68651e-06 4.64307e-05)
(0.000549607 -9.83656e-05 0.000109318)
(0.000579916 -0.000152671 0.000127549)
(0.000601532 -0.00015469 0.000117094)
(0.000465941 -6.78703e-05 0.00011561)
(0.000428948 -3.12189e-05 0.000127254)
(0.000477111 -6.74293e-05 9.46913e-05)
(0.000305283 5.39647e-05 0.000521654)
(0.0003241 3.46387e-05 0.000538358)
(0.000366061 -1.61071e-05 0.000573832)
(0.000364795 7.55592e-06 0.000566582)
(0.000311785 7.23393e-05 0.000525937)
(0.00035246 6.64427e-06 0.00053322)
(0.000452688 -2.69545e-05 0.000675014)
(0.000323656 2.8196e-05 0.000529459)
(0.000355532 1.45009e-05 0.000548841)
(0.000410722 2.48569e-05 0.000632145)
(0.000402557 -1.23479e-05 0.000558511)
(0.00037047 1.08449e-05 0.000522635)
(0.000413118 1.59457e-05 0.000591347)
(0.000482104 -1.79755e-05 0.000684946)
(0.000489229 1.9886e-05 0.000805705)
(0.000367078 4.88043e-05 0.000588217)
(0.000419848 4.88629e-05 0.000679424)
(0.000403948 5.29352e-05 0.000676579)
(0.000432216 3.50279e-06 0.000663894)
(0.000572718 -6.84541e-05 0.000809512)
(0.000529712 -0.000114608 0.000707656)
(0.000437901 6.37605e-05 0.000714097)
(0.000458254 -1.42394e-05 0.000675724)
(0.000411226 5.75975e-06 0.000579929)
(0.00046359 6.51838e-06 0.000659995)
(0.000452775 -3.8889e-05 0.000565685)
(0.000410058 -2.97851e-05 0.000490949)
(0.000459573 -1.3251e-05 0.000586379)
(-3.62106e-05 -2.99897e-05 0.000160908)
(0.000527849 -0.00010867 0.000632736)
(0.000497889 -7.59979e-05 0.000536026)
(0.000541615 -2.85715e-05 0.000661065)
(0.000429072 -2.24998e-05 0.00061469)
(0.000498332 -5.52724e-05 0.000633706)
(0.000565815 -4.41063e-05 0.000740074)
(0.000516169 -0.000104815 0.000523808)
(0.000508361 -9.74549e-05 0.000438096)
(0.000494012 -4.15612e-05 0.000542838)
(0.000634528 -4.06671e-05 0.000968033)
(0.000442632 7.04189e-06 0.000678442)
(-3.63584e-05 -2.58199e-05 0.000148726)
(0.000473036 -2.12135e-05 0.00067704)
(0.000546292 -1.29923e-05 0.000798584)
(0.000619355 -8.6638e-05 0.000871908)
(0.000633049 -0.000131243 0.000804599)
(0.000464568 -6.3985e-05 0.000581596)
(-4.14751e-05 -2.1262e-05 0.000160481)
(0.000576496 -0.000207201 0.000536184)
(0.000600359 -7.93989e-05 0.000722963)
(0.000609759 -9.90769e-05 0.000830506)
(0.0005391 -0.000103991 0.000682945)
(0.000599178 -6.55252e-05 0.000795605)
(0.00066443 -0.000142241 0.000776922)
(0.000595214 -0.00012801 0.000623353)
(0.00072776 -0.00024093 0.000789883)
(0.000649705 -0.000249141 0.000611708)
(0.000678822 -0.000171126 0.000765639)
(0.000480003 1.7234e-05 0.000751802)
(0.000484801 -3.80805e-05 0.000708993)
(0.00059577 -5.49431e-05 0.000860247)
(0.000640049 -5.67275e-05 0.000956415)
(0.000628642 -0.000154288 0.000872534)
(0.00057641 2.32814e-05 0.00086848)
(0.000657443 -0.00011146 0.000980953)
(0.000620504 5.97245e-05 0.000969494)
(0.000582112 -5.96299e-05 0.000862399)
(0.000571957 -9.45817e-05 0.000798677)
(0.000682339 -0.000135048 0.000940677)
(0.000564185 -0.000113508 0.000777239)
(0.000617519 -0.000166849 0.000749665)
(0.000699628 -0.000152942 0.000887928)
(0.000799368 -0.000238812 0.000953073)
(0.000615605 -0.000232158 0.000702229)
(0.000730525 -0.000335035 0.000637455)
(0.000743204 -0.000186509 0.000843917)
(0.000610079 -0.000170666 0.0004251)
(0.000509478 -0.000167664 0.000449293)
(0.000596871 -0.000184883 0.000457219)
(0.000580901 -8.97327e-05 0.000598543)
(0.000638581 -0.000167102 0.000602964)
(0.000636931 -0.00020496 0.000422547)
(0.000588152 -0.000197707 0.000372128)
(0.000652877 -0.000207451 0.000264608)
(0.000594024 -0.000155141 0.000358559)
(0.00068576 -0.000243627 0.000431838)
(0.000697604 -0.0002876 0.000302711)
(0.000682374 -0.00023662 0.000403954)
(0.000709359 -0.000254644 0.000605818)
(-4.41913e-05 -1.70969e-05 0.000158722)
(0.000679353 -0.000299491 0.000451085)
(0.000687075 -0.000223919 0.000595102)
(0.000810477 -0.000367544 0.000711727)
(0.000789935 -0.000394004 0.000487897)
(0.000743031 -0.000266172 0.000656949)
(-4.74792e-05 -1.24123e-05 0.000160031)
(0.000771293 -0.000354051 0.00048994)
(0.000809762 -0.000369467 0.000357393)
(-3.59824e-05 -3.43418e-05 0.000183127)
(0.00070798 -0.000265421 0.000464943)
(0.000636573 -0.000207716 0.000273515)
(-4.00318e-05 -2.70595e-05 0.000186373)
(0.000647208 -0.000186788 0.000232149)
(0.000631959 -0.000199729 0.000241616)
(-3.42717e-05 -3.41709e-05 0.000168437)
(0.000706318 -0.000198442 0.000185934)
(-3.74211e-05 -1.67255e-05 0.000169786)
(-4.0709e-05 -2.86397e-05 0.000183226)
(0.000724991 -0.000316598 0.000256594)
(0.00067857 -0.000239703 0.000228711)
(-4.18638e-05 -2.72201e-05 0.000182885)
(0.000673911 -0.00024084 0.000290631)
(0.000420685 -0.000257433 0.000220454)
(-4.53965e-05 -1.98022e-05 0.000178179)
(0.000482042 -0.000304996 0.000174325)
(0.000385956 -0.000247969 0.000171854)
(-4.44194e-05 -2.04502e-05 0.000182301)
(0.000288258 -0.000193012 0.000182633)
(0.000356198 -0.000243961 0.000180665)
(-4.83089e-05 -1.30724e-05 0.000191001)
(0.000258877 -0.000183243 0.000148439)
(0.000313898 -0.000187577 0.000230288)
(-3.71514e-05 -1.96297e-05 0.000164334)
(-3.36638e-05 -1.74132e-05 0.000151575)
(0.000358915 -0.00022796 0.000174096)
(-3.92888e-05 -2.38005e-05 0.000154037)
(-4.11441e-05 -1.82278e-05 0.000168314)
(0.000183273 -0.000119872 0.000152535)
(-3.95976e-05 -1.5854e-05 0.000152903)
(-4.35157e-05 -1.3238e-05 0.000166698)
(0.000244073 -0.000169238 0.000170001)
(-4.21126e-05 -1.26297e-05 0.000151069)
(0.000167184 -0.000112436 0.00013257)
(9.40975e-05 -5.43256e-05 0.000101271)
(0.00015658 -9.55027e-05 0.000152793)
(0.000109766 -5.3543e-05 0.000122559)
(7.82681e-05 -3.98884e-05 9.1519e-05)
(0.000124697 -6.29776e-05 0.000131605)
(8.86492e-05 -5.73209e-05 8.73265e-05)
(0.000184517 -0.000103484 0.000175909)
(0.000223653 -0.000133952 0.000169332)
(0.000237269 -0.000203558 8.63988e-05)
(0.000374945 -0.000279593 0.000116158)
(0.000265064 -0.000185 0.000141998)
(0.000108476 -8.62163e-05 7.05598e-05)
(0.000227203 -0.000183873 0.000105999)
(0.000163899 -0.000115576 0.000120208)
(0.000122207 -8.61164e-05 0.00010901)
(0.000163638 -0.000106577 0.000139357)
(0.000213859 -0.000143325 0.000131974)
(5.39945e-05 -6.13619e-05 2.72408e-05)
(0.000118695 -8.13466e-05 9.56638e-05)
(8.85829e-05 -8.45352e-05 5.97462e-05)
(4.48542e-05 3.31365e-05 8.92108e-05)
(5.41555e-05 8.6756e-06 9.38187e-05)
(5.27987e-05 3.2246e-05 0.000102246)
(6.04552e-05 4.97365e-05 0.000110485)
(7.1999e-05 4.78146e-05 0.000113112)
(3.61466e-05 4.87338e-05 7.44563e-05)
(-2.55132e-05 -3.87302e-05 0.000144885)
(2.72128e-05 5.84029e-05 7.51015e-05)
(2.55454e-05 4.09125e-05 4.45456e-05)
(4.68901e-05 5.13756e-05 7.46612e-05)
(2.57487e-05 5.18362e-05 3.90139e-05)
(7.36134e-05 -2.18444e-05 0.000101957)
(-2.83281e-05 -3.54376e-05 0.000147236)
(3.94001e-05 2.01993e-06 6.96725e-05)
(7.00377e-05 -1.50585e-05 0.000101357)
(5.60482e-05 -1.16398e-05 7.82194e-05)