/*--------------------------------*- C++ -*----------------------------------*\
  =========                 |
  \\      /  F ield         | OpenFOAM: The Open Source CFD Toolbox
   \\    /   O peration     | Website:  https://openfoam.org
    \\  /    A nd           | Version:  7
     \\/     M anipulation  |
\*---------------------------------------------------------------------------*/
FoamFile
{
    version     2.0;
    format      ascii;
    class       volScalarField;
    location    "7.25";
    object      p;
}
// * * * * * * * * * * * * * * * * * * * * * * * * * * * * * * * * * * * * * //

dimensions      [0 2 -2 0 0 0 0];

internalField   nonuniform List<scalar> 
382612
(
0.00208279
0.00184671
0.00200028
0.00200303
0.00174624
0.0022132
0.00212537
0.00201593
0.00184394
0.00168991
0.00188125
0.00186911
0.00181792
0.00184565
0.00195423
0.00207743
0.00185696
0.00199679
0.00202497
0.00204528
0.00206466
0.00208974
0.00211477
0.0021264
0.00210733
0.00208367
0.00206056
0.00247234
0.00251699
0.00255466
0.00258594
0.00237648
0.00236989
0.00236095
0.00234494
0.00225832
0.00196499
0.00204908
0.00211085
0.00214205
0.00216767
0.00219038
0.00210723
0.00209121
0.00207001
0.00204321
0.0019597
0.00197406
0.00199446
0.00201127
0.00216923
0.00215305
0.00213366
0.00211273
0.00208543
0.00192996
0.00197965
0.00205987
0.00212276
0.00201422
0.00208743
0.0019672
0.0019851
0.00261727
0.00202886
0.00187249
0.00213988
0.00234268
0.00244389
0.00257618
0.00259378
0.0025962
0.0025974
0.00273942
0.00272981
0.00271706
0.00269236
0.00258673
0.00238333
0.00248655
0.00252684
0.00255396
0.00257306
0.00290626
0.00291339
0.00292153
0.00290539
0.00275081
0.00212982
0.00225697
0.00228827
0.00230347
0.00231354
0.00248892
0.0025031
0.00252045
0.00252125
0.00244981
0.00202005
0.00208711
0.00210977
0.00212339
0.00213799
0.00215459
0.00203047
0.00202311
0.00201461
0.00201129
0.00182198
0.00185103
0.00187243
0.00188794
0.00213776
0.00211886
0.00209773
0.00207663
0.00204781
0.001711
0.00182573
0.00185799
0.00187308
0.00188217
0.00204511
0.00202645
0.00200612
0.00198302
0.00191517
0.00166217
0.00184402
0.00197593
0.0019991
0.00200811
0.00201118
0.0022199
0.00222856
0.00224062
0.00225302
0.00236533
0.00234396
0.00221489
0.00218389
0.00216484
0.0021512
0.00189714
0.00188715
0.00187538
0.00186889
0.00198893
0.00200249
0.00201397
0.00202141
0.00201589
0.00201202
0.00200487
0.00199962
0.00204148
0.00196034
0.00189137
0.00189132
0.0018981
0.00190276
0.00183411
0.00198783
0.00202449
0.00171166
0.00187033
0.00181622
0.00210209
0.00231124
0.00177579
0.00179853
0.00213278
0.00174288
0.00181724
0.00179651
0.00172982
0.00172677
0.00173557
0.00174113
0.00224834
0.00225904
0.0022767
0.00229945
0.00229738
0.00196069
0.00192209
0.00191221
0.0019118
0.00191327
0.00223731
0.00225227
0.00227637
0.00230614
0.00233425
0.00200513
0.00211653
0.00212487
0.0021237
0.0021189
0.00211578
0.00193237
0.00193253
0.00193491
0.00194685
0.00164382
0.00164698
0.00165414
0.00165706
0.00198368
0.00198411
0.00198402
0.00198646
0.0020232
0.0016687
0.00165878
0.00202582
0.00192422
0.00160678
0.00183858
0.00198162
0.00169212
0.00197203
0.0019397
0.00166164
0.00158044
0.00189586
0.00190922
0.00175617
0.00157585
0.00180887
0.00194985
0.00200662
0.00198593
0.00197311
0.00183884
0.00167652
0.00200979
0.00193253
0.00199513
0.00203038
0.00195087
0.0019958
0.00211822
0.00209712
0.00189961
0.00194089
0.00197832
0.00198914
0.00200263
0.00201692
0.00216989
0.00216741
0.00215883
0.00211845
0.00238534
0.00236113
0.00234263
0.00232558
0.00274838
0.00273815
0.00272853
0.00270469
0.00256936
0.00248637
0.00242212
0.00242827
0.00244024
0.00244374
0.00244972
0.00211197
0.00211399
0.00210915
0.00209535
0.00210354
0.00256848
0.00253199
0.00253506
0.00254456
0.00255289
0.00238102
0.00236732
0.00234533
0.0023281
0.00235175
0.00257008
0.00252454
0.00252398
0.00253787
0.00254933
0.00275257
0.00275295
0.00275269
0.00274327
0.00267131
0.00258585
0.0027113
0.00274125
0.00275416
0.00276167
0.00318314
0.0031893
0.00319721
0.0031788
0.00300399
0.00222982
0.00225678
0.0022724
0.00229476
0.00231306
0.00238537
0.00237749
0.00236684
0.00234544
0.00224524
0.0020605
0.00213977
0.00217286
0.00219699
0.00221307
0.00255181
0.00256635
0.00258997
0.0026005
0.00251449
0.00185318
0.00185237
0.00185848
0.00187548
0.00189159
0.00197167
0.00197274
0.00198505
0.00199947
0.00200924
0.00194551
0.00193048
0.00191165
0.00190077
0.00188859
0.00244145
0.00244672
0.00242599
0.00239979
0.00238122
0.00187072
0.00186147
0.0018505
0.00185197
0.001891
0.00237943
0.00232988
0.00229855
0.00227339
0.00225744
0.00174324
0.00173888
0.00173435
0.00174852
0.00184629
0.00204347
0.00198039
0.00197168
0.00197625
0.00198144
0.00221951
0.00223243
0.00225213
0.00227892
0.00232894
0.00194687
0.00185509
0.0018431
0.00184976
0.0018561
0.00218685
0.00219776
0.00221357
0.00223123
0.00224018
0.00200803
0.00204384
0.00204608
0.00204698
0.0020439
0.00204095
0.00196251
0.00196179
0.00196153
0.00196704
0.00180502
0.00180247
0.00180412
0.00180501
0.0019817
0.00198504
0.001988
0.0019902
0.00199862
0.00182428
0.00207896
0.00202414
0.00201154
0.00200781
0.00200516
0.00195452
0.00212314
0.00220259
0.00215256
0.00213686
0.00212852
0.00212284
0.00198602
0.0019858
0.0019851
0.0019845
0.00203753
0.0020351
0.00203123
0.00202826
0.00205279
0.0020542
0.00205643
0.00205802
0.00203775
0.00203938
0.00204329
0.00204607
0.00221722
0.00222169
0.00222643
0.00223042
0.0022523
0.00205376
0.00206111
0.00208984
0.00215433
0.00200025
0.00205488
0.0020164
0.00189768
0.00178129
0.00197607
0.00197889
0.0018127
0.00215068
0.00210907
0.00208022
0.00211893
0.00199345
0.00204037
0.00210275
0.00218369
0.00217937
0.00228096
0.00227248
0.00223661
0.00223036
0.00223147
0.0022334
0.00231399
0.00231112
0.00230711
0.00230285
0.0023033
0.00235937
0.00236529
0.00236669
0.00236865
0.00237139
0.00230072
0.0023014
0.0023017
0.00229941
0.00229788
0.00212731
0.00207248
0.00207949
0.00208124
0.00208038
0.00207985
0.00213915
0.00213275
0.00212457
0.00211963
0.00207051
0.00207446
0.00207926
0.00208282
0.00205373
0.00205495
0.00205664
0.00205654
0.00205362
0.00207046
0.00226311
0.00224797
0.00224808
0.00224693
0.00224473
0.00226106
0.00234125
0.00229093
0.00227584
0.00228062
0.00228865
0.00229454
0.00250375
0.00250317
0.00250069
0.00248932
0.0024518
0.00248132
0.00250485
0.00251403
0.00251994
0.00252421
0.00243404
0.00242844
0.00242118
0.00241372
0.00241093
0.00233812
0.00236565
0.00237842
0.00238396
0.00238743
0.00219395
0.00218363
0.00217131
0.002165
0.00212037
0.00212416
0.00212456
0.00212516
0.00216478
0.00216313
0.00216128
0.00215723
0.00221494
0.00221681
0.00222262
0.00222766
0.00245748
0.00244653
0.00243227
0.00241414
0.00238206
0.00221814
0.00214006
0.00212724
0.00224263
0.002174
0.00211758
0.0020832
0.00214382
0.00200356
0.0020328
0.00208502
0.00212816
0.00218255
0.00209453
0.00210547
0.00221231
0.00216912
0.00210487
0.00228869
0.00235717
0.00244862
0.00248348
0.00243448
0.00243924
0.00244705
0.00245593
0.0024623
0.00258889
0.00258207
0.00257189
0.00255664
0.00252689
0.00255472
0.00258531
0.00259748
0.00260456
0.00260898
0.00251759
0.00251367
0.00250733
0.00249649
0.00248327
0.00248205
0.00249414
0.00250117
0.00250471
0.00250679
0.00243929
0.00242881
0.00241498
0.00239902
0.00236611
0.00222989
0.00225223
0.00225196
0.00224938
0.00224737
0.00232318
0.00231401
0.00230306
0.0022878
0.00223998
0.00215968
0.00210665
0.00211672
0.0021213
0.00212169
0.0021213
0.00214564
0.00214173
0.00213732
0.00213955
0.00218689
0.00219188
0.00219866
0.00220392
0.00213637
0.00213533
0.0021346
0.00213331
0.00212439
0.00218216
0.00216603
0.00210426
0.00210557
0.00215294
0.00211022
0.00207823
0.00209042
0.00213175
0.0022311
0.00213366
0.00206207
0.00208443
0.00216301
0.00208193
0.00231263
0.00264094
0.00222064
0.00211028
0.00235265
0.00249204
0.00257236
0.00258483
0.00256131
0.00253918
0.00245384
0.00248712
0.00250198
0.00250903
0.00251305
0.00259
0.00258504
0.00257891
0.0025699
0.00254127
0.00256463
0.00259717
0.00260714
0.00261342
0.00261823
0.00256988
0.00256163
0.0025507
0.0025391
0.0025249
0.00256207
0.00259458
0.00260666
0.00261386
0.00261883
0.00257759
0.00257451
0.00256812
0.0025537
0.00251476
0.00239706
0.00239355
0.00239877
0.00240654
0.00241288
0.00246815
0.00246597
0.00246304
0.00245604
0.00243096
0.0023124
0.00231238
0.00231787
0.00232358
0.00232736
0.00219889
0.0021948
0.00218973
0.00218518
0.00217941
0.00211519
0.00209074
0.00209914
0.00210236
0.00210223
0.00210046
0.00212375
0.00212014
0.00211527
0.00211199
0.00210152
0.00210315
0.00210644
0.00211011
0.00207371
0.00207388
0.002072
0.00206705
0.00206427
0.00210755
0.00219836
0.00219277
0.00219702
0.00220251
0.00220709
0.00215336
0.00214909
0.00214364
0.0021396
0.00214206
0.0020637
0.0020479
0.00205925
0.00206293
0.00206453
0.0020665
0.00208811
0.00208258
0.00207588
0.00207046
0.00209032
0.0020911
0.00209248
0.00209373
0.00208591
0.00208367
0.00208333
0.00208263
0.00207458
0.00208851
0.00208391
0.0020541
0.00207413
0.00207529
0.0020172
0.00202054
0.0021028
0.00213485
0.00216095
0.00209413
0.00207001
0.00204992
0.00209111
0.00207289
0.00198192
0.00188841
0.00212789
0.00208169
0.00214845
0.00220505
0.00233017
0.00218191
0.00218322
0.00234084
0.0020869
0.00205772
0.00213089
0.00226496
0.00218699
0.0021091
0.00209989
0.00222696
0.00227185
0.00213368
0.00208701
0.00208613
0.00233066
0.00232059
0.00237506
0.00237995
0.00238984
0.00237622
0.00237336
0.00237384
0.00237504
0.00237276
0.00237139
0.00237081
0.00237281
0.00237194
0.00245925
0.00247728
0.00248165
0.00248515
0.00248818
0.00240774
0.00240567
0.0024012
0.00239044
0.00236687
0.00230948
0.00230409
0.00230347
0.00230595
0.00230911
0.00241836
0.00241364
0.00240823
0.0024011
0.0023787
0.00240918
0.00243546
0.002445
0.00245242
0.00245848
0.0025479
0.00254318
0.00253575
0.00251942
0.00247807
0.00240316
0.00242408
0.00243767
0.002446
0.00245104
0.00253367
0.00252804
0.0025215
0.00251466
0.00249541
0.00248748
0.00249945
0.00250491
0.00250922
0.00251245
0.00242692
0.00242448
0.00242237
0.00242032
0.00240698
0.00235514
0.00234713
0.00234513
0.00234671
0.00234851
0.00225663
0.00225142
0.00224509
0.00224258
0.00225535
0.00227272
0.00228965
0.00229314
0.00229316
0.0022934
0.00217701
0.00217915
0.00218081
0.00218063
0.00217214
0.00217174
0.00218738
0.00218754
0.00218409
0.0021807
0.00205055
0.00204632
0.00204169
0.00204093
0.0020689
0.00207417
0.00207717
0.00207986
0.00206879
0.00206492
0.0020601
0.00205293
0.00204466
0.0020481
0.00204605
0.00205076
0.00205595
0.00205978
0.00208164
0.00208233
0.0020826
0.00208286
0.00208287
0.00206441
0.00206164
0.0020611
0.00206118
0.00206104
0.00202084
0.00201695
0.00201173
0.00200791
0.00202332
0.00202797
0.00203182
0.0020357
0.00210426
0.00210053
0.00209865
0.00209645
0.00207101
0.0020684
0.00207039
0.00207314
0.00210167
0.00210591
0.0021118
0.00211809
0.00212337
0.00208307
0.00209073
0.00207192
0.00204978
0.0018962
0.00197317
0.00209554
0.0020509
0.00200925
0.00204514
0.00208525
0.00209394
0.00181891
0.00196716
0.00195791
0.00178337
0.00187282
0.00194915
0.00200993
0.00197421
0.00208915
0.00205919
0.00210786
0.00220033
0.00230404
0.00214135
0.00210499
0.00217297
0.00219211
0.00213316
0.00202244
0.0020183
0.00197514
0.00225467
0.00250236
0.00267314
0.00274323
0.00269915
0.00255157
0.00234275
0.00210865
0.00189405
0.0017564
0.00180413
0.00181697
0.00181609
0.00181303
0.00194173
0.00193464
0.00192693
0.00192234
0.00191717
0.00213003
0.00219679
0.00221349
0.00221471
0.00221332
0.0022976
0.00228903
0.00227912
0.00227172
0.00225409
0.00219925
0.00225005
0.00226242
0.00226788
0.00227172
0.00225058
0.00224905
0.00224414
0.00223012
0.00218039
0.00236091
0.00237239
0.00237736
0.00238573
0.00239342
0.00233181
0.00233103
0.00232701
0.00231229
0.00226292
0.00218623
0.00219694
0.00220306
0.00220698
0.00220873
0.00234248
0.0023383
0.00233485
0.00233556
0.00233887
0.00231054
0.00230592
0.00231153
0.00231811
0.00232288
0.00231745
0.00231589
0.00231206
0.00230426
0.0022959
0.0022461
0.00226407
0.00227077
0.00227236
0.00227231
0.00217484
0.00217225
0.0021691
0.00216837
0.00217385
0.00223658
0.00222626
0.00222038
0.0022172
0.0022158
0.00212605
0.00212118
0.00211616
0.00211792
0.0021459
0.00211592
0.00210381
0.00210585
0.00210997
0.00211278
0.00213385
0.00213853
0.00214612
0.00215519
0.00215763
0.00204043
0.00202742
0.00202937
0.00203216
0.00203377
0.00199619
0.00199398
0.00199059
0.0019891
0.00200371
0.00201201
0.00200704
0.00200746
0.00200791
0.00200716
0.00204261
0.00203888
0.00203369
0.00202956
0.00203091
0.0019779
0.00200324
0.00201185
0.00202179
0.00203149
0.00203975
0.00201688
0.00200962
0.0019989
0.00198698
0.00200861
0.00200955
0.00201192
0.00201373
0.0020468
0.00204477
0.00204271
0.00203858
0.00203009
0.00201837
0.00206247
0.00208366
0.00207539
0.00202246
0.00192853
0.00202898
0.00198237
0.00185494
0.0020051
0.00203212
0.00188146
0.00168117
0.00177202
0.00195209
0.00186095
0.00165445
0.00181845
0.00188381
0.0019302
0.00191686
0.00194933
0.00197108
0.00200384
0.00195561
0.00163573
0.00184474
0.00185256
0.00164308
0.00162066
0.00168098
0.00175789
0.00193655
0.00211654
0.00224835
0.00229974
0.00224657
0.00209454
0.00187049
0.00162276
0.0013937
0.00128653
0.00133958
0.00134736
0.00134275
0.00133731
0.00145399
0.00144746
0.00144105
0.00143768
0.00142924
0.0017223
0.00177639
0.00178754
0.00178502
0.00178018
0.00190723
0.00189907
0.00189009
0.00188575
0.00188269
0.00206515
0.00207604
0.00208162
0.00208749
0.00209191
0.00199148
0.00198593
0.00198099
0.00198275
0.00198443
0.00214233
0.00212464
0.00212142
0.00212541
0.00212994
0.00205117
0.00204869
0.00204902
0.0020574
0.00206378
0.00216206
0.00213114
0.00211925
0.00211814
0.00211952
0.00212627
0.00212459
0.0021219
0.00212085
0.00213332
0.0022659
0.00226558
0.00225999
0.00225803
0.00225872
0.00220752
0.00220679
0.00220727
0.00221503
0.00224627
0.00216911
0.0021687
0.00216107
0.00215764
0.00215662
0.00214067
0.00214236
0.00214649
0.00215634
0.00217203
0.00209855
0.0020862
0.00208488
0.00208678
0.00208852
0.00214823
0.00214803
0.00214726
0.00214488
0.00213739
0.00217257
0.002137
0.00219129
0.00218808
0.00211805
0.00211662
0.00212014
0.00212254
0.00212309
0.00205188
0.00205009
0.00204868
0.00205265
0.00207625
0.00202698
0.0020228
0.00202564
0.0020263
0.00202591
0.00201279
0.00201145
0.00200912
0.0020067
0.00201519
0.00200856
0.00201269
0.00201384
0.0020136
0.0020132
0.00196695
0.00196749
0.00196843
0.00197277
0.00199388
0.00215085
0.00214486
0.00213024
0.00211944
0.00211347
0.00208426
0.00208753
0.00209433
0.00211072
0.00216203
0.00206656
0.0020803
0.00207229
0.00206958
0.00206821
0.00206915
0.00201724
0.00201886
0.00202252
0.00203443
0.00195567
0.00196621
0.00197171
0.00197505
0.00209896
0.00209586
0.00209213
0.00208263
0.00205609
0.00193257
0.00199431
0.00212346
0.00202364
0.00192907
0.00191839
0.0020971
0.00194367
0.00193471
0.00196548
0.00197606
0.00197778
0.00197696
0.00188768
0.0018872
0.00188556
0.00188453
0.00189307
0.00194884
0.00198236
0.00198561
0.00198376
0.00198134
0.00202045
0.00202769
0.00203408
0.00202936
0.00197391
0.001964
0.00200929
0.00203156
0.00203818
0.00204287
0.00204889
0.00201127
0.00201382
0.0020146
0.00200717
0.00194322
0.00195075
0.00196018
0.00196655
0.00206593
0.00205952
0.00205164
0.00204009
0.00202363
0.00195943
0.00205628
0.00206209
0.00203316
0.00195896
0.00177205
0.00194382
0.00190514
0.00166856
0.00162956
0.00185094
0.00178677
0.00155516
0.00180293
0.00187636
0.00194255
0.00198367
0.00183609
0.00185286
0.00190189
0.00187624
0.00184317
0.00193215
0.00199231
0.00192582
0.00205572
0.00204799
0.00199015
0.00193962
0.00188592
0.00200289
0.00193602
0.00177301
0.00204165
0.0020588
0.00205427
0.00208208
0.00203232
0.00203171
0.00200668
0.00203937
0.00168802
0.00185209
0.0019007
0.00167815
0.00175857
0.00191518
0.00196131
0.00198408
0.00186873
0.00194617
0.00189069
0.0017673
0.00174443
0.00188544
0.00192212
0.00170422
0.00177668
0.00194719
0.00195555
0.0017551
0.001849
0.00198229
0.00199729
0.00188843
0.00177757
0.00198291
0.00194534
0.00170087
0.00194138
0.00193271
0.00190341
0.00185979
0.00178107
0.00177124
0.0017743
0.00177595
0.00200145
0.00200187
0.00200264
0.0020105
0.00205986
0.00228234
0.00222736
0.0022075
0.00219734
0.0021922
0.00199051
0.00198556
0.0019806
0.00198952
0.00206518
0.00224269
0.00221575
0.00220167
0.0021949
0.00219188
0.00214713
0.00214367
0.00214038
0.00214536
0.00219513
0.00212252
0.00210239
0.00198643
0.00194469
0.0018937
0.00188612
0.00188762
0.0018884
0.00208031
0.00208214
0.00208301
0.00208271
0.00210129
0.00227755
0.00224274
0.0022289
0.00222485
0.00222395
0.00214016
0.00213607
0.00213129
0.00213408
0.00217618
0.00231675
0.00231124
0.00230467
0.00230162
0.00230029
0.00221927
0.0022191
0.00221887
0.00222228
0.00225257
0.00224609
0.00222622
0.00214429
0.0020951
0.00201849
0.0019838
0.00198117
0.00198296
0.00198424
0.00216528
0.00216593
0.00216941
0.00218097
0.0021964
0.00226638
0.0022591
0.0022523
0.00225116
0.00225217
0.00227852
0.00227663
0.00227347
0.00226936
0.00227144
0.00230169
0.00230922
0.0023135
0.00231375
0.00231308
0.00233146
0.0024388
0.00240353
0.00228873
0.00212676
0.0020213
0.00204283
0.00205093
0.00205043
0.00204799
0.00218943
0.00218498
0.00218282
0.00218772
0.00219499
0.00223486
0.00224905
0.00225384
0.00226048
0.00226708
0.002149
0.00215227
0.00215263
0.00213923
0.00209141
0.00189998
0.00187892
0.00187706
0.00188302
0.00188892
0.00174247
0.00174682
0.00174975
0.00174148
0.00171654
0.00148483
0.00147254
0.00146572
0.00146576
0.00146764
0.0014754
0.00147194
0.00146866
0.00146988
0.00147753
0.00122353
0.00121795
0.00121967
0.00122568
0.0012315
0.00119647
0.00119606
0.00119729
0.00120008
0.00119801
0.001031
0.00101858
0.00101993
0.00102231
0.00102452
0.000942197
0.000936633
0.000933316
0.000937082
0.00096214
0.00119988
0.00121735
0.00122032
0.00121478
0.00120788
0.0013441
0.00133847
0.00133333
0.00133587
0.00135645
0.00157888
0.00156536
0.00156504
0.00156959
0.00157467
0.00176787
0.00177285
0.00177706
0.00177223
0.00174223
0.00185168
0.00187899
0.00188596
0.00188627
0.00188602
0.0017906
0.00179327
0.00179443
0.00179085
0.00179661
0.0018709
0.00185047
0.00185201
0.00185629
0.00186003
0.00197036
0.00197087
0.00197083
0.00196734
0.0019584
0.00193911
0.00191935
0.00191674
0.00191672
0.00191596
0.00212673
0.00212828
0.00213422
0.00214403
0.00215304
0.00190963
0.00188619
0.00188597
0.00188928
0.00189126
0.00194662
0.00194735
0.00194821
0.00194751
0.00194364
0.00194065
0.00191496
0.00190996
0.00190909
0.00190882
0.00205347
0.00205843
0.0020683
0.00208515
0.00209831
0.00211136
0.0020781
0.0020651
0.0020596
0.00205707
0.00186522
0.00186267
0.00185873
0.00185566
0.00186772
0.00188763
0.00187439
0.0018755
0.00187746
0.0018784
0.00211448
0.00212421
0.00214122
0.0021652
0.00216991
0.00222731
0.00224239
0.00222321
0.00220669
0.00219685
0.00220841
0.00221105
0.00221786
0.00223065
0.00223078
0.00231152
0.0022977
0.0022969
0.00229622
0.00229776
0.00207785
0.00207358
0.0020676
0.00206352
0.00206549
0.00193216
0.00194398
0.00198495
0.0020019
0.00201722
0.00202986
0.00206557
0.00206286
0.00205753
0.002035
0.00215384
0.00215333
0.00215359
0.00215496
0.00213522
0.00212716
0.00212144
0.00211963
0.00213531
0.00214455
0.00205856
0.00210548
0.00198704
0.00188768
0.00213712
0.00207452
0.00201655
0.00194556
0.00179681
0.00191716
0.00190138
0.00180706
0.00185319
0.00184419
0.00193495
0.00196369
0.00190978
0.00195226
0.0019768
0.00191651
0.00182908
0.00194504
0.00191375
0.00177191
0.00180796
0.00190042
0.00185656
0.00180184
0.00190969
0.00163565
0.00145464
0.00129955
0.0012198
0.00120155
0.00120169
0.00118246
0.00113422
0.00107136
0.000995228
0.000908901
0.000812565
0.000714384
0.000613983
0.000698099
0.000687545
0.000686897
0.00068918
0.000691111
0.000831863
0.000843057
0.000855195
0.000861928
0.000855295
0.000911734
0.000914016
0.000911632
0.000906388
0.000901408
0.000855882
0.00086592
0.000876108
0.000881664
0.000890224
0.00112485
0.00107945
0.00106852
0.00106996
0.00107417
0.00122539
0.00123389
0.00124143
0.00124081
0.00124098
0.0015191
0.00149676
0.00148537
0.00148482
0.00148617
0.00168658
0.00168467
0.00168654
0.00170003
0.00173808
0.00157742
0.00158368
0.00158403
0.00158254
0.0015804
0.001536
0.0015402
0.00154281
0.00154446
0.00156648
0.0018883
0.00186674
0.00184926
0.00184315
0.00184198
0.00191315
0.00191376
0.00191804
0.00193509
0.00199158
0.001704
0.00171079
0.00171185
0.00171132
0.00171049
0.00173075
0.0017328
0.00173552
0.00174048
0.00176178
0.00199427
0.00199123
0.00197447
0.00196397
0.00195902
0.0019391
0.00194172
0.00194831
0.00196523
0.00201255
0.00173738
0.00173009
0.00173135
0.00173355
0.00173416
0.00180173
0.00180245
0.00180317
0.00180263
0.00180149
0.00187434
0.00185135
0.00184489
0.00184182
0.00183988
0.00206225
0.00207248
0.00208917
0.00210908
0.00210382
0.00178243
0.00178711
0.00179379
0.00179708
0.00179851
0.0018387
0.00183559
0.00182816
0.00181322
0.00179547
0.00181156
0.00182976
0.00184784
0.00185979
0.00186621
0.00195794
0.00195089
0.00193878
0.00191739
0.00188298
0.00178957
0.00183531
0.00185873
0.00187044
0.00187635
0.00213418
0.00212885
0.00212027
0.00209821
0.00202467
0.00219376
0.00222842
0.00222776
0.00222483
0.00222418
0.00210459
0.00210834
0.00211141
0.00210514
0.00203182
0.0020394
0.00205139
0.00206285
0.00212279
0.00210731
0.00209018
0.00207509
0.00208273
0.00209775
0.00210141
0.00210216
0.00233637
0.00233287
0.0023291
0.00231309
0.00220961
0.00200152
0.00206578
0.00206134
0.00191228
0.00188599
0.00206702
0.00205811
0.0018794
0.00194831
0.00211071
0.00214228
0.00215583
0.00216231
0.00216895
0.00204346
0.00203223
0.00201381
0.00199292
0.00227976
0.00230307
0.0023033
0.00230344
0.00218616
0.00218083
0.00217239
0.00215674
0.00213489
0.00229365
0.0022881
0.00228846
0.00228163
0.00227769
0.00229491
0.00229046
0.00228504
0.00227377
0.00233304
0.00203918
0.00205795
0.0020608
0.00206547
0.00207305
0.00208031
0.00216576
0.00216733
0.00216747
0.00215183
0.00206278
0.00208904
0.00209909
0.00210643
0.00205122
0.00204293
0.0020337
0.00202355
0.00199309
0.00189868
0.0018349
0.00205541
0.00199628
0.00200794
0.00200666
0.00193083
0.00191634
0.00190895
0.00207509
0.00199388
0.00190043
0.00191839
0.00197328
0.00189463
0.0019625
0.00194224
0.00191432
0.00164423
0.00128328
0.000916937
0.000654354
0.000555603
0.000612959
0.000742981
0.000844014
0.000852536
0.000769948
0.000641512
0.00055976
0.000489555
0.000455255
0.000396528
0.000421244
0.000406773
0.000399186
0.000392117
0.000386331
0.000456192
0.000457206
0.000460908
0.000471903
0.000506662
0.000552743
0.000540435
0.00053385
0.000524919
0.000515923
0.000664221
0.00066665
0.000672797
0.000688916
0.000717851
0.000922975
0.00087824
0.000857498
0.000848809
0.000844669
0.000961325
0.000969023
0.000975309
0.000977521
0.000990387
0.00132694
0.00128976
0.00126994
0.00126422
0.00126435
0.00146522
0.00146771
0.00147441
0.0014961
0.00156675
0.00131262
0.00131881
0.0013186
0.00131742
0.00131674
0.00134519
0.00134961
0.00135302
0.00135659
0.00138041
0.00174898
0.00173002
0.0017082
0.00169521
0.00168961
0.00175244
0.00175506
0.00176192
0.00178123
0.00184145
0.00148212
0.00149198
0.00149383
0.00149406
0.00149326
0.00159068
0.00159356
0.0015972
0.00160283
0.00162111
0.00187687
0.00187579
0.00185627
0.00184126
0.00183352
0.00185354
0.00186084
0.00187514
0.00189779
0.00191029
0.00199301
0.0019627
0.00194274
0.00193129
0.00192563
0.00163078
0.00162915
0.00162296
0.00161031
0.00160217
0.00167877
0.00168649
0.00169669
0.00170316
0.00170569
0.00182634
0.00182353
0.00181977
0.00181543
0.00180152
0.00190994
0.00193689
0.00194204
0.00194327
0.00194379
0.00206283
0.00206222
0.00206067
0.00205416
0.00202158
0.00199886
0.00202667
0.00203276
0.00203467
0.00203481
0.00206938
0.00206103
0.00204682
0.00202239
0.00197788
0.00205258
0.00205754
0.00206757
0.00207581
0.00208082
0.00222382
0.00222897
0.00223654
0.00223724
0.00218263
0.00208958
0.00217851
0.00218797
0.00218603
0.00218408
0.0020973
0.00209321
0.00208729
0.00207824
0.00202903
0.00214062
0.00214405
0.00214071
0.00213909
0.00214169
0.00212103
0.00197937
0.00200717
0.00196945
0.00205952
0.00219827
0.00183091
0.00200163
0.00221514
0.00185964
0.00219747
0.00292547
0.0020497
0.0021841
0.00226474
0.00255387
0.00202106
0.00165023
0.00115033
0.000730628
0.000452353
0.00038759
0.000480841
0.000627889
0.000722632
0.00070366
0.000601976
0.000486012
0.000397131
0.000366993
0.000328344
0.000429881
0.00043383
0.000430498
0.000427003
0.000424895
0.000329578
0.000336135
0.000340594
0.000341386
0.000347607
0.000591626
0.000583305
0.000565612
0.000551237
0.000542357
0.000783374
0.000792834
0.000805352
0.000817687
0.000835864
0.000775049
0.000757552
0.000755134
0.000750824
0.000745275
0.00113923
0.00114982
0.00116889
0.00119765
0.00122765
0.00139332
0.00135792
0.00134164
0.00132963
0.00132156
0.00125937
0.00126305
0.00126667
0.00127102
0.00129225
0.00167357
0.00165146
0.00162531
0.00160837
0.00159959
0.00167204
0.00167785
0.00168747
0.00170143
0.00172233
0.00135065
0.00133771
0.00134152
0.00134675
0.00134986
0.00147548
0.00147535
0.00147505
0.00147551
0.00148743
0.00156652
0.00156998
0.00156876
0.00156576
0.0015632
0.00165761
0.00166586
0.00167469
0.00167416
0.0016396
0.00169924
0.00173367
0.0017303
0.0017187
0.00170737
0.00193345
0.00194096
0.00195236
0.00195601
0.00190423
0.00191831
0.00194712
0.00195057
0.00195157
0.00195161
0.00197217
0.00197087
0.00196647
0.00195571
0.00190908
0.00204762
0.00209237
0.00210454
0.00211051
0.00211416
0.00219682
0.00219814
0.00219925
0.00219479
0.00215356
0.00221951
0.00223967
0.00224463
0.0022497
0.00225386
0.00233515
0.00234106
0.00234967
0.00234595
0.00226211
0.00207304
0.00204014
0.00205037
0.00207096
0.00208579
0.00238091
0.00237719
0.00237202
0.00236373
0.0023201
0.00227625
0.00226018
0.0022598
0.00226424
0.00226748
0.00224365
0.0022496
0.00225663
0.0022496
0.00217569
0.00202295
0.00213573
0.00214544
0.00213846
0.00213162
0.00226289
0.00226937
0.0022807
0.00227526
0.00214518
0.00189432
0.00191968
0.00193164
0.00193988
0.00194483
0.00208625
0.00209014
0.00209253
0.00208302
0.00204398
0.00204127
0.00194177
0.00193322
0.00204343
0.00205922
0.00192422
0.00198141
0.00199144
0.00199521
0.00199651
0.00206624
0.00206792
0.00206994
0.00206875
0.00201138
0.00197447
0.00200064
0.00195318
0.00192061
0.00190997
0.00194376
0.00196092
0.0019657
0.00190416
0.00196186
0.00199813
0.00197626
0.00197875
0.0021897
0.00207063
0.00201851
0.00207081
0.00201931
0.00199476
0.00195582
0.00187486
0.00190143
0.00196996
0.00201946
0.00202319
0.00207039
0.0020456
0.00200634
0.00199542
0.00197993
0.00198648
0.00204474
0.00210318
0.00205198
0.00202361
0.00198202
0.00193494
0.00192151
0.00198498
0.00201416
0.00200596
0.00196068
0.00198678
0.00198853
0.00194164
0.00193644
0.00197805
0.00194892
0.00192102
0.00190685
0.00194859
0.00194368
0.00187538
0.00187651
0.00197055
0.00191345
0.0018546
0.00192499
0.00193903
0.00197619
0.00201406
0.00199004
0.00195975
0.00193482
0.00196329
0.00198793
0.00192871
0.00195335
0.00199857
0.00194986
0.00195614
0.00194357
0.00195458
0.00205753
0.00196392
0.00198194
0.00207981
0.00188122
0.00185264
0.00167282
0.00145269
0.0011807
0.000918612
0.000825059
0.000869004
0.00116739
0.00126726
0.00154278
0.00167695
0.00169973
0.00171137
0.00172008
0.00200902
0.00202433
0.00204152
0.00205008
0.00202178
0.00146884
0.00151808
0.00152629
0.00152668
0.0015234
0.00214722
0.00216726
0.00219293
0.00220661
0.00218998
0.00159971
0.00155325
0.00154847
0.00155127
0.00155183
0.00218691
0.00220706
0.00223709
0.00226892
0.00225923
0.00225825
0.00231065
0.00231133
0.00229931
0.00228803
0.00168468
0.00168665
0.0016846
0.00167912
0.00166554
0.00163058
0.00166129
0.00165826
0.00165478
0.00165182
0.00203141
0.00204064
0.00205363
0.00207436
0.00215569
0.00169011
0.00163555
0.00163079
0.00163291
0.00163211
0.00177282
0.00177486
0.00177822
0.00178795
0.00183176
0.00219622
0.00211052
0.00208257
0.00207032
0.00206317
0.00198783
0.00199572
0.00201056
0.00203853
0.00207185
0.00214474
0.00206386
0.00204205
0.00203487
0.00203174
0.00199491
0.00199883
0.00200932
0.00203285
0.00207611
0.00204362
0.00199914
0.00199338
0.0019956
0.00199834
0.0017527
0.00171081
0.00170616
0.00170639
0.00170523
0.00177849
0.00177906
0.00177845
0.00178065
0.00180687
0.00206471
0.00203338
0.00201284
0.00200368
0.00200095
0.00197803
0.0019755
0.00197577
0.00199113
0.00206261
0.00207703
0.00207472
0.00207797
0.00207845
0.00207759
0.00212284
0.00212286
0.00212254
0.00211998
0.0021135
0.00219847
0.00211265
0.00195109
0.0017373
0.00163616
0.00163041
0.00163266
0.00163025
0.00162612
0.00184961
0.00185075
0.00185497
0.00187251
0.00190783
0.00191105
0.00189109
0.00188265
0.00188278
0.00188476
0.00169183
0.00169709
0.001702
0.00169847
0.00168675
0.00151915
0.00149783
0.0014852
0.00148083
0.0014795
0.00124241
0.00124247
0.00124648
0.00126199
0.00129255
0.00124679
0.0012279
0.00122106
0.00122082
0.00122204
0.00107696
0.00108575
0.00109469
0.00109724
0.00109281
0.00115051
0.00118206
0.00118183
0.0011707
0.00115944
0.000821351
0.000818637
0.000817347
0.000822265
0.000841004
0.00086095
0.000842236
0.000842492
0.000847111
0.000850718
0.000800853
0.000802742
0.000805651
0.000811295
0.000828501
0.000846149
0.00085621
0.000849648
0.000838441
0.000829273
0.000591782
0.000589657
0.000587771
0.000589573
0.000603252
0.000583082
0.000548034
0.000542303
0.000542936
0.000544128
0.000543338
0.000546591
0.000550637
0.000555735
0.000570294
0.00056539
0.000557756
0.000549755
0.000540259
0.000532138
0.000577078
0.000577151
0.000579294
0.000589041
0.000621902
0.000752751
0.00071984
0.000709496
0.000707817
0.000707885
0.000620358
0.000542288
0.000577085
0.000558294
0.000550501
0.000544978
0.000540844
0.0004589
0.00045308
0.000483571
0.000485945
0.00048246
0.000476422
0.000471053
0.00046332
0.000461604
0.000461303
0.000466971
0.000496265
0.000448984
0.000444728
0.000441764
0.000437439
0.000433583
0.000375981
0.00037576
0.000376085
0.000378759
0.000390751
0.000336766
0.000325883
0.000323001
0.000324445
0.000326225
0.000367526
0.000369635
0.000373641
0.000384051
0.000410796
0.00043619
0.000426244
0.000422002
0.00041516
0.000408317
0.000554033
0.000557761
0.000566306
0.000583604
0.000610192
0.000825852
0.000777739