/*--------------------------------*- C++ -*----------------------------------*\
  =========                 |
  \\      /  F ield         | OpenFOAM: The Open Source CFD Toolbox
   \\    /   O peration     | Website:  https://openfoam.org
    \\  /    A nd           | Version:  7
     \\/     M anipulation  |
\*---------------------------------------------------------------------------*/
FoamFile
{
    version     2.0;
    format      ascii;
    class       volVectorField;
    location    "7.25";
    object      wallShearStress;
}
// * * * * * * * * * * * * * * * * * * * * * * * * * * * * * * * * * * * * * //

dimensions      [0 2 -2 0 0 0 0];

internalField   uniform (0 0 0);

boundaryField
{
    outlet1
    {
        type            calculated;
        value           uniform (0 0 0);
    }
    Wall
    {
        type            calculated;
        value           nonuniform List<vector> 
40276
(
(0.00042384 4.96273e-05 0.000168879)
(-0.00018693 -8.55861e-06 0.000415631)
(-0.000190648 -7.80599e-06 0.000407562)
(9.55588e-05 -1.29858e-05 0.000157418)
(8.1849e-05 1.80327e-05 0.000155728)
(8.34629e-05 5.78108e-05 0.000162294)
(9.88187e-05 4.46914e-05 0.000171917)
(0.00013468 3.64661e-05 0.000187523)
(0.000104383 2.48902e-05 0.000169631)
(0.000101143 7.20264e-06 0.000173574)
(0.000388167 3.86244e-05 0.000411614)
(0.000469255 1.58892e-05 0.000446472)
(0.000584677 4.03165e-05 0.000939779)
(0.000562548 3.87544e-05 0.000870345)
(0.000483984 -1.53468e-05 0.000332616)
(0.000432697 1.88423e-06 0.000361772)
(0.000392161 2.10069e-05 5.92672e-05)
(0.00035091 2.37622e-05 2.51143e-05)
(-0.000109673 -1.08035e-05 -0.00016906)
(-0.000118437 -3.8539e-05 -0.000188325)
(-0.000154771 3.90991e-05 0.000211671)
(-0.000185888 4.41376e-05 0.00019854)
(-0.000119845 3.22201e-05 6.79505e-05)
(-0.000138727 2.96395e-05 6.42682e-05)
(-0.000100081 2.37213e-05 4.33576e-05)
(-0.000112362 2.47702e-05 3.75692e-05)
(-0.00012324 4.09283e-05 2.17125e-05)
(-0.000120737 4.13551e-05 1.58638e-05)
(-0.000181284 5.85289e-05 3.28044e-05)
(-0.000162645 5.02071e-05 2.39419e-05)
(-0.000120773 3.93894e-05 7.14521e-05)
(-0.000135193 4.72187e-05 7.88841e-05)
(-5.25651e-05 -3.17689e-06 0.000159657)
(-4.68083e-05 -4.86563e-06 0.000148386)
(-6.22718e-05 1.02737e-05 8.0582e-06)
(-6.11644e-05 1.16653e-05 7.61346e-06)
(0.000567185 6.58408e-05 0.000212178)
(0.000616426 4.73616e-05 0.000234076)
(0.00105854 0.000255838 0.000398568)
(0.00119784 0.000328681 0.000420381)
(0.000990699 6.26547e-05 0.000158954)
(0.000950276 3.47474e-05 0.000185948)
(-4.97334e-05 -1.43658e-05 -0.000388348)
(-2.96759e-05 -1.09296e-05 -0.000352324)
(-5.31194e-05 -2.12e-06 -0.000353673)
(-4.48423e-05 -6.17118e-06 -0.000290866)
(-7.38077e-05 -3.47925e-07 -0.000298888)
(-5.64583e-05 -3.18228e-06 -0.000241395)
(-6.54672e-05 -8.12993e-07 -0.000207952)
(-6.37903e-05 1.07126e-06 -0.000173043)
(-5.23553e-05 -1.16063e-06 -0.000141943)
(-6.45016e-05 1.37833e-06 -0.000148963)
(-5.58045e-05 -1.75297e-07 -0.000118891)
(-5.899e-05 2.23097e-06 -0.000120356)
(0.000441729 8.10156e-05 0.000260269)
(0.000459831 9.50388e-05 0.00022937)
(-1.75907e-05 1.33043e-05 0.000131466)
(6.41057e-05 2.19826e-05 0.000191058)
(-1.05033e-05 8.69774e-06 0.00013415)
(-0.000459312 -0.000149011 -0.000439507)
(-0.000488361 -0.000123929 -0.00044966)
(1.90566e-05 3.45273e-05 0.000291506)
(-1.27944e-05 -1.18284e-05 0.000225323)
(1.03557e-05 -1.03183e-06 -4.6274e-05)
(1.31476e-05 2.83618e-06 -4.30825e-05)
(6.52973e-06 -3.1345e-09 -4.21719e-05)
(1.98566e-06 -2.64897e-06 -4.07773e-05)
(1.13081e-05 6.38093e-08 -4.32114e-05)
(-0.000117918 -1.91074e-05 -0.000107325)
(-0.000130014 -8.45947e-06 -0.000116554)
(-5.35122e-05 4.29604e-06 -9.83316e-05)
(-5.43835e-05 8.82326e-08 -0.000100096)
(-1.80611e-05 1.35576e-06 -1.83897e-05)
(-1.80569e-05 1.37281e-06 -1.81479e-05)
(-1.63472e-05 1.43133e-06 -1.77876e-05)
(-1.5482e-05 1.74814e-06 -1.71197e-05)
(-1.76485e-05 7.96376e-07 -1.76216e-05)
(2.29701e-05 -1.62917e-06 -6.13315e-06)
(1.99217e-05 -1.7054e-06 -9.86809e-06)
(-7.61974e-07 4.40326e-06 2.53128e-07)
(-4.58021e-09 -2.02067e-07 1.92791e-07)
(7.86005e-06 -1.09328e-06 -4.21422e-07)
(1.88601e-05 2.23461e-07 1.29564e-05)
(1.83029e-05 4.02209e-07 1.33061e-05)
(2.85732e-05 -1.80269e-06 2.00991e-05)
(5.78438e-06 5.06474e-07 -3.72788e-05)
(1.47267e-06 -1.83001e-06 -3.57374e-05)
(4.70184e-06 9.55402e-07 -3.25239e-05)
(2.57814e-05 -2.006e-06 1.86291e-05)
(2.47778e-05 -1.55651e-06 1.78799e-05)
(2.12982e-05 -9.55447e-07 1.58633e-05)
(-4.47119e-05 -4.72817e-06 -4.04611e-05)
(5.64749e-07 -1.13791e-06 -3.12501e-05)
(3.64985e-06 1.2548e-06 -2.84705e-05)
(-5.13767e-08 -5.70641e-07 -2.74984e-05)
(-6.54889e-07 -3.23246e-07 -2.40463e-05)
(-1.20944e-06 5.55426e-08 -2.1059e-05)
(-1.98009e-06 2.11653e-07 -1.89923e-05)
(-5.26388e-06 -3.15293e-07 -1.52276e-05)
(-5.9126e-06 -1.1965e-07 -1.43395e-05)
(-6.73885e-06 4.33611e-10 -1.39759e-05)
(-9.79438e-06 -2.85387e-07 -1.4195e-05)
(-1.00383e-05 -2.10017e-07 -1.46139e-05)
(-5.01953e-05 -1.01339e-06 -4.40363e-05)
(-1.03307e-05 -3.12763e-08 -1.54753e-05)
(-1.88614e-05 -3.73717e-06 -2.30156e-05)
(-1.57129e-05 -3.70627e-06 -1.83857e-05)
(-1.02084e-05 -1.24008e-07 -1.6083e-05)
(-1.01386e-05 3.70131e-08 -1.71249e-05)
(-9.77308e-06 -5.62379e-07 -1.74847e-05)
(-9.96714e-06 4.23303e-08 -1.85841e-05)
(-9.44462e-06 -6.22304e-07 -1.93591e-05)
(-8.87825e-06 -2.69595e-07 -1.97778e-05)
(-8.6445e-06 -1.06273e-06 -2.13105e-05)
(-8.33501e-06 -1.66593e-06 -1.99816e-05)
(4.20219e-06 -8.86937e-07 -2.64311e-05)
(4.06433e-06 -2.89675e-06 -2.77891e-05)
(2.59251e-06 -2.9055e-06 -2.62304e-05)
(-0.000276918 -6.29609e-05 0.000486918)
(-0.000279968 -6.1454e-05 0.000441513)
(-1.49448e-05 -1.24491e-06 5.39961e-06)
(-1.2521e-05 -1.42181e-06 6.65298e-06)
(-4.14576e-05 -1.79757e-06 1.64092e-05)
(-3.58271e-05 -3.11783e-06 1.52346e-05)
(-4.36061e-06 -8.56498e-06 -5.4016e-06)
(-2.07259e-06 -8.46293e-06 -2.66874e-06)
(-0.000127408 2.5236e-05 0.000183944)
(-0.000110635 3.39578e-05 0.000156452)
(-0.000160204 -1.77807e-05 0.000274307)
(-0.000139978 -2.38421e-05 0.000236126)
(-0.000102854 -6.15948e-06 0.000172695)
(-8.99888e-05 -9.21567e-06 0.000148635)
(-0.00015624 9.37372e-05 0.000466536)
(-0.000216505 0.000169337 0.000651935)
(7.37519e-06 -1.18603e-05 0.000188627)
(-1.29213e-06 -4.60216e-06 0.000159412)
(-0.000102154 2.75734e-05 0.000193027)
(-5.57871e-05 1.32462e-06 0.000167442)
(-0.000180051 -5.71363e-05 0.000490452)
(-0.000179721 -4.02407e-05 0.000491169)
(-0.000179583 -4.51996e-05 0.000525424)
(-0.000195306 -2.14267e-05 0.000526929)
(-0.000559916 1.78069e-06 -0.000151425)
(-0.000642514 2.49254e-06 -0.000183616)
(-2.27554e-05 -7.96784e-05 9.95791e-06)
(-2.65496e-05 -7.89424e-05 1.19239e-05)
(-2.14453e-05 -4.38746e-05 6.54982e-05)
(-2.52095e-05 -5.36642e-05 8.18399e-05)
(-2.90482e-05 -5.25589e-05 6.60952e-05)
(-2.32173e-05 -4.04618e-05 5.37557e-05)
(-1.54686e-05 -8.61463e-05 8.48782e-06)
(-1.98959e-05 -9.83539e-05 6.53326e-06)
(-2.34952e-05 -8.34767e-05 8.81933e-06)
(-2.18829e-05 -8.64845e-05 9.21271e-06)
(-2.31359e-05 -0.000128636 -1.56103e-05)
(-1.99742e-05 -0.000111411 -1.41258e-05)
(-7.64295e-06 -5.66219e-05 -3.31689e-06)
(-9.87884e-06 -5.05372e-05 -4.75773e-06)
(-6.0983e-05 -3.12413e-05 9.45509e-05)
(-5.57714e-05 -3.30672e-05 8.93517e-05)
(9.00358e-05 3.83142e-06 -0.000233584)
(9.81611e-05 -5.08467e-06 -0.000218275)
(-0.00013718 -5.95126e-05 -1.25092e-05)
(-0.000136004 -6.6503e-05 -1.47043e-05)
(-0.000298426 -4.80238e-05 0.000147091)
(-0.000320328 -5.21615e-05 0.000138461)
(-0.000291724 -7.46739e-05 -2.60607e-05)
(-0.000285101 -6.18816e-05 -3.52701e-05)
(-0.000174096 0.000193055 0.000237045)
(-0.000167958 0.000241645 0.000220141)
(-0.000249083 -4.48467e-05 1.31744e-05)
(-0.000131154 -4.67558e-05 -1.84878e-05)
(-0.000206864 -7.75196e-05 7.47202e-05)
(-0.000178226 -7.59419e-05 6.31828e-05)
(-0.000227726 -5.19236e-05 5.8851e-05)
(-6.74188e-05 -4.22691e-05 -7.10714e-06)
(-3.91079e-05 -2.09149e-05 6.05089e-05)
(-3.22277e-05 -1.93928e-05 5.58627e-05)
(0.000549114 -0.000215403 0.00041335)
(0.00050351 -0.000189101 0.000344828)
(0.000484949 -0.000269796 0.00022784)
(0.000457594 -0.000199911 0.000257916)
(0.000466633 -0.000231909 0.000255548)
(0.000235236 -0.000151262 0.00018563)
(0.000330107 -0.000208833 0.000216691)
(0.000258448 -0.000152796 0.000200045)
(0.000427607 -0.000192843 0.00034892)
(0.000450578 -0.000236153 0.000332545)
(0.000444906 -0.000231374 0.000288777)
(0.000343783 -0.000228966 0.000188842)
(0.000447777 -0.000279533 0.000188281)
(0.000373198 -0.000205958 0.00024245)
(0.000141693 -7.29005e-05 0.000160753)
(0.000228554 -0.000152762 0.000185466)
(0.000176222 -8.95973e-05 0.000181049)
(0.000131121 -5.75772e-05 0.000165117)
(7.4305e-05 4.53696e-05 0.000155816)
(0.000285947 0.000111848 4.28919e-05)
(0.000347153 0.000111103 9.41967e-05)
(0.000296832 7.43477e-05 0.000106617)
(0.000314293 5.91723e-05 4.5595e-05)
(0.000374729 6.30731e-05 9.66819e-05)
(0.000338381 9.91896e-05 8.80898e-05)
(0.000303968 7.4307e-05 6.54227e-05)
(9.79878e-05 5.31834e-05 8.88496e-05)
(0.000114511 6.40551e-05 8.76214e-05)
(9.19229e-05 1.15512e-05 0.000141353)
(9.62497e-05 1.71403e-05 0.000140337)
(0.000109661 9.50282e-06 0.0001636)
(9.06793e-05 4.86528e-07 0.00014708)
(0.0001017 3.34591e-05 0.000137909)
(8.15467e-05 3.49865e-05 0.000105769)
(7.86939e-05 3.79432e-05 7.79369e-05)
(7.32238e-05 1.82711e-05 9.58394e-05)
(6.75248e-05 7.60643e-06 0.000110737)
(5.11639e-05 -9.50392e-07 8.78666e-05)
(6.54765e-05 -6.1508e-06 0.000106052)
(5.62725e-05 1.60962e-05 7.48754e-05)
(4.76699e-05 1.36888e-05 6.36716e-05)
(5.16225e-05 1.19261e-05 7.26e-05)
(0.000153431 9.19517e-05 4.67472e-05)
(0.000184832 0.000101855 6.54665e-05)
(0.000189112 9.20931e-05 7.65492e-05)
(0.00018109 8.72557e-05 4.54814e-05)
(0.000113128 6.59576e-05 7.56383e-05)
(0.000129901 7.51417e-05 5.05706e-05)
(0.000138726 8.12357e-05 2.98576e-05)
(0.000141168 6.92491e-05 4.07671e-05)
(0.000123141 6.6733e-05 4.58782e-05)
(0.000269338 0.00011036 3.56654e-05)
(0.000221529 0.000104569 3.32698e-05)
(0.000286305 0.000101586 4.96636e-05)
(0.000260625 7.39645e-05 3.48005e-05)
(0.000232405 9.69513e-05 2.1572e-05)
(0.000213014 7.31596e-05 2.74626e-05)
(8.03059e-05 4.66719e-05 5.42823e-05)
(8.61521e-05 4.48444e-05 5.94398e-05)
(6.85805e-05 3.23346e-05 6.67827e-05)
(0.000104649 6.34179e-05 4.66381e-05)
(5.86897e-05 2.64017e-05 5.74571e-05)
(7.02811e-05 4.23838e-05 3.66426e-05)
(0.000116578 6.28107e-05 5.58687e-05)
(0.000152875 7.9285e-05 2.45041e-05)
(7.54416e-05 5.01083e-05 9.42207e-06)
(8.78171e-05 4.78725e-05 2.7e-05)
(7.66815e-05 4.9182e-05 2.12869e-05)
(0.00013918 8.21167e-05 6.80329e-06)
(0.000170744 8.60701e-05 -1.44481e-05)
(0.000154627 6.01126e-05 2.27548e-05)
(0.000150338 7.40044e-05 1.03346e-05)
(0.000314637 2.82885e-05 0.000550077)
(0.000352651 5.7189e-05 0.000639481)
(0.000320605 -1.37418e-06 0.000571892)
(0.000332251 2.88679e-05 0.000587964)
(0.000355118 9.92843e-05 0.000394844)
(0.000383947 0.000104611 0.000469115)
(0.000275065 9.45686e-05 0.000386026)
(0.000300321 8.88285e-05 0.000442015)
(0.000294507 0.000105628 0.000440811)
(0.000276089 8.7429e-05 0.000453448)
(0.000391407 0.000156356 0.00050617)
(0.000328146 0.000132341 0.000380216)
(0.000373716 0.000138061 0.000473833)
(0.000237679 8.98545e-05 0.000385967)
(0.000318602 0.000115724 0.000481972)
(0.000405527 0.000129556 0.000383198)
(0.00036369 0.000134537 0.000451994)
(0.000356566 0.000131302 0.000452945)
(0.000410576 0.00013529 0.000562153)
(0.000426264 0.00016948 0.000497391)
(0.000469341 0.000183487 0.0004948)
(0.000461353 0.000191384 0.000466959)
(0.000450801 0.000158641 0.000558082)
(0.000435462 0.000163171 0.000558003)
(0.000398325 7.3007e-05 0.000464642)
(0.00051029 7.85599e-05 0.000496487)
(0.000391028 9.21869e-05 0.000478049)
(0.000302687 9.41017e-05 0.000373905)
(0.000382241 9.06695e-05 0.000466629)
(0.000417833 7.05581e-05 0.000406928)
(0.000313485 5.58381e-05 0.000305883)
(0.000338486 0.000101663 0.000366849)
(0.000363143 8.36957e-05 0.000355788)
(0.000367148 9.37742e-05 0.000347335)
(0.000492369 -4.16134e-05 0.000431314)
(0.000507015 -5.959e-05 0.000428992)
(0.000519239 -0.000138682 0.000415952)
(0.000405654 -6.28045e-05 0.000371366)
(0.000488011 -0.000118885 0.000326303)
(0.000382862 -9.35033e-06 0.000341669)
(0.000531946 -0.000129223 0.000354572)
(0.000363932 -2.81287e-05 0.000293008)
(0.000469698 -9.89906e-05 0.000284398)
(0.000550022 -0.000209045 0.000270405)
(0.000342816 5.78799e-05 0.000356258)
(0.00034246 8.59376e-05 0.000374115)
(0.000381879 2.45828e-05 0.000311355)
(0.000379272 6.40588e-05 0.000328657)
(0.000396487 0.000142611 0.000378623)
(0.000430167 0.000148269 0.000510639)
(0.000428323 0.000146382 0.000458319)
(0.000442995 0.000127523 0.000372579)
(0.000498445 0.00016256 0.000416232)
(0.000497064 0.000189916 0.000524355)
(0.000446946 0.000158003 0.000523081)
(0.000472474 0.000155658 0.000552397)
(0.00047173 0.000172434 0.000398386)
(0.000451973 0.000159052 0.000525073)
(0.00045216 0.000164088 0.000524028)
(0.000572275 0.000208066 0.000657281)
(0.000546115 0.000195735 0.000513439)
(0.000402713 0.000116982 0.000369711)
(0.000570763 0.000179867 0.000421546)
(0.000453538 0.00010459 0.00039263)
(0.000582787 0.000147238 0.000398842)
(0.000513809 0.00017825 0.000439635)
(0.000518854 0.000163185 0.000511637)
(0.000694804 0.000261842 0.000524108)
(0.000550739 0.000187122 0.000432788)
(0.000526372 0.000159936 0.000456235)
(0.000735658 0.000259019 0.000483414)
(0.000567655 0.000245384 0.000484303)
(0.000604264 0.000209144 0.000592244)
(0.000559702 0.000181941 0.000625616)
(0.000662447 0.000226054 0.000620704)
(0.000660412 0.000231562 0.000599459)
(0.000349827 0.000139997 0.000456322)
(0.000341466 0.000130789 0.000450895)
(0.000234742 7.02696e-05 0.000425587)
(0.000338573 0.000128373 0.000488817)
(0.000425745 0.000120904 0.000632637)
(0.000389455 0.000111242 0.000581397)
(0.000377851 0.000146026 0.000491717)
(0.000397384 0.000154 0.000510946)
(0.000380589 0.000147201 0.000559873)
(0.00036188 6.21328e-05 0.000647225)
(0.000312607 4.28296e-05 0.000579265)
(0.000367132 0.000108338 0.000607482)
(0.000349862 9.52401e-05 0.000602374)
(0.000312953 4.221e-05 0.000506965)
(0.000423825 0.000170103 0.000537876)
(0.000448669 0.000138769 0.000627133)
(0.000400287 0.000122307 0.00061023)
(0.000385833 -5.16546e-06 0.00063713)
(0.000475303 0.000143852 0.000711206)
(0.000357228 5.91366e-05 0.000605179)
(0.000462851 0.000185749 0.000524598)
(0.000501856 0.000194709 0.000563218)
(0.000447169 0.000140737 0.000625177)
(0.000437666 0.000175034 0.000559653)
(0.000505726 0.000203935 0.000563652)
(0.000502791 0.00012688 0.00069521)
(0.000513029 0.000144454 0.000781987)
(0.000408851 4.74176e-05 0.000674417)
(0.000375172 4.58493e-05 0.000614345)
(0.000407039 7.73654e-05 0.000648653)
(0.000462316 0.000129785 0.000689252)
(0.000394681 7.40464e-05 0.000607093)
(0.000513425 0.000218921 0.000602143)
(0.000512333 0.000105424 0.000749659)
(0.000592323 0.000191255 0.000851989)
(0.00028175 1.1554e-05 0.000491982)
(0.000292981 5.52112e-05 0.000500906)
(0.000357336 0.000131631 0.000559107)
(0.000376179 8.36466e-05 0.000637136)
(0.000354418 2.61598e-05 0.000587733)
(0.000437343 9.34346e-05 0.000694595)
(0.000335582 -1.22481e-05 0.000567436)
(0.000337721 4.01263e-05 0.000558897)
(0.000430873 0.000143327 0.000677378)
(0.000359567 4.58144e-05 0.000611864)
(0.000314417 3.70262e-05 0.000527636)
(0.000382744 -4.71959e-06 0.000631539)
(0.000332354 4.27912e-05 0.000558196)
(0.000353565 4.59617e-05 0.000582965)
(0.00042978 4.27765e-05 0.000702166)
(0.00033581 8.74632e-05 0.0005775)
(0.000334788 5.97642e-05 0.000564379)
(0.000426984 -5.7678e-05 0.000654555)
(0.000478737 0.000128884 0.000753715)
(0.000411654 -2.14699e-05 0.000693097)
(0.00052395 6.55844e-05 0.000856728)
(0.000399978 1.25161e-05 0.000668258)
(0.000420243 3.50135e-05 0.000684968)
(0.000529424 0.000159912 0.000768803)
(0.000424426 5.36562e-05 0.000678514)
(0.000485055 3.5305e-05 0.000772298)
(0.00052265 4.51826e-05 0.000856479)
(0.000532682 1.93283e-05 0.000855142)
(0.000420224 3.5728e-05 0.000673467)
(0.000475146 4.16293e-05 0.000753969)
(0.000424867 1.52728e-05 0.00067476)
(0.000484659 4.92989e-05 0.000767086)
(0.000546992 0.000175605 0.0006852)
(0.000535391 0.000192354 0.000613206)
(-2.10059e-05 -4.91149e-05 0.000160212)
(0.000565695 0.000153873 0.000774927)
(0.000491911 0.000139294 0.000664125)
(0.000615138 0.000227414 0.000664383)
(0.000574076 0.000221427 0.00060014)
(0.000609505 0.000214491 0.000674139)
(-2.52638e-05 -4.87905e-05 0.000159652)
(0.000543602 0.000172932 0.000710788)
(0.000563284 0.000208112 0.000657108)
(0.000610419 0.000228924 0.000685362)
(0.000555582 0.000168127 0.000764514)
(0.000624719 0.000178109 0.000912091)
(-2.29043e-05 -4.85714e-05 0.00015693)
(0.000468512 7.20578e-05 0.000727806)
(0.000433327 6.30003e-05 0.000710072)
(0.000466927 9.65722e-05 0.000705573)
(0.000526522 5.97012e-05 0.000795332)
(0.000463966 0.000106894 0.000702718)
(-2.5374e-05 -3.80839e-05 0.000159943)
(0.000575637 0.000235873 0.000662959)
(0.000594432 0.000121457 0.000836845)
(0.000681888 0.000216861 0.000929807)
(0.000655649 0.000218926 0.000773491)
(0.000714676 0.000252208 0.000648313)
(0.000771702 0.00028494 0.000655765)
(0.000645314 0.000190302 0.00083294)
(0.000603797 0.000175092 0.000745802)
(0.000633135 0.000257404 0.000626439)
(0.000666889 0.00023715 0.000678804)
(0.000641968 0.000203765 0.000759046)
(0.000711267 0.000244852 0.000809433)
(0.000736628 0.000282945 0.000776436)
(0.000657548 0.000204694 0.000836587)
(0.000684515 0.000171384 0.000940397)
(0.000561344 0.000137265 0.00078326)
(0.000626262 0.000139759 0.000974305)
(0.000509362 0.00010457 0.000752164)
(0.000587172 8.11028e-05 0.000888334)
(0.000730068 0.000241224 0.000925477)
(0.00060609 0.000196009 0.000766301)
(0.0006452 0.000168803 0.000920626)
(0.000537698 8.9941e-05 0.000867491)
(0.000557121 0.000149848 0.000788708)
(0.000729019 0.000132395 0.0010232)
(0.000640363 0.000146412 0.000994023)
(0.000590969 6.60325e-05 0.000948827)
(0.000592271 2.02774e-05 0.000943461)
(0.000474691 2.92838e-05 0.000787786)
(0.000467179 6.54711e-05 0.000733531)
(0.000601839 0.000120009 0.000870961)
(0.00061466 0.000126908 0.000960465)
(0.000577236 2.78359e-05 0.00090428)
(0.000593391 3.87672e-05 0.000934565)
(0.00060261 -3.88952e-05 0.000936688)
(0.000583902 3.93685e-05 0.000893982)
(0.000669076 0.000132063 0.000971442)
(-3.13475e-05 -4.31828e-05 0.000168329)
(0.000501289 -1.96164e-06 0.000821059)
(0.00045618 5.66742e-05 0.000718486)
(0.000649673 0.000150916 0.000957231)
(0.000677224 0.000190554 0.00101476)
(0.000565297 -1.54722e-06 0.000944605)
(0.000704181 6.34791e-05 0.00111198)
(0.000526393 4.19142e-05 0.000828221)
(0.00064979 3.0245e-05 0.000996839)
(0.000519507 5.30281e-05 0.000822087)
(0.000500335 -1.82409e-05 0.000762354)
(0.000642499 -8.99243e-05 0.000952696)
(0.000689338 3.27471e-05 0.00109265)
(0.000690029 1.40278e-06 0.00108178)
(0.000367258 -5.09023e-05 0.000534352)
(0.000289314 1.98668e-05 0.000448782)
(0.00032411 9.63047e-06 0.000465379)
(0.000313466 9.80155e-06 0.000479669)
(0.000225402 4.06456e-05 0.000402949)
(0.000299491 2.80164e-05 0.000463926)
(0.000382822 2.99227e-06 0.000497509)
(0.000300168 4.65694e-05 0.000469105)
(0.000349162 4.48083e-05 0.000620289)
(0.0003508 6.18029e-05 0.000594861)
(-2.31166e-05 -4.18219e-05 0.000153508)
(-2.67846e-05 -4.38548e-05 0.000160407)
(-2.47847e-05 -4.05209e-05 0.000148587)
(-2.62673e-05 -3.6843e-05 0.000149449)
(0.000391791 3.31022e-05 0.000612986)
(0.000354573 7.52204e-05 0.000561967)
(0.000422184 1.47158e-05 0.000566492)
(0.000378779 3.20186e-05 0.000509235)
(0.000397039 -1.30626e-05 0.000512598)
(0.000393731 3.96202e-06 0.00048383)
(-2.9709e-05 -3.6234e-05 0.000154825)
(0.000415607 1.8441e-06 0.000535218)
(-3.50317e-05 -2.89065e-05 0.000164901)
(-3.01244e-05 -3.4615e-05 0.000155916)
(0.000444865 1.19779e-05 0.000222741)
(0.000442208 1.59374e-05 0.000270394)
(0.000421516 -1.41017e-05 0.000257021)
(-3.34643e-05 -3.4459e-05 0.000153944)
(-2.65176e-05 -3.83386e-05 0.000164574)
(-2.59133e-05 -4.18777e-05 0.000161117)
(-3.23166e-05 -3.37809e-05 0.00017501)
(-3.38579e-05 -4.23197e-05 0.000182615)
(-2.97008e-05 -3.03054e-05 0.000166625)
(-2.85644e-05 -2.62572e-05 0.000159427)
(-3.46619e-05 -3.44979e-05 0.000159015)
(0.000393555 6.34351e-05 7.32019e-05)
(0.00045429 6.4005e-05 0.000138056)
(0.000373765 3.29048e-05 8.12647e-05)
(0.000359235 6.62812e-05 5.97461e-05)
(0.000374726 4.68944e-05 8.32169e-05)
(0.000435782 1.10622e-05 0.000126545)
(0.000421571 1.24039e-05 0.000187869)
(0.000448109 -3.02704e-05 0.000196413)
(0.000441729 6.01261e-07 0.000162944)
(0.000421782 -3.40254e-07 0.000204474)
(0.000410757 2.88066e-05 9.02087e-05)
(0.000428478 -8.37088e-06 9.6746e-05)
(0.000435647 -9.16106e-06 0.000384979)
(0.000413492 5.56945e-06 0.000419617)
(0.000400674 -2.34777e-06 0.000436812)
(0.000362526 5.61446e-06 0.000419925)
(0.000393642 3.10569e-06 0.000460694)
(0.000330991 2.45889e-05 0.000428363)
(0.000462279 -4.77044e-06 0.000414618)
(0.00046848 -2.55923e-05 0.000355137)
(0.000472077 -1.50139e-05 0.000340606)
(0.000412546 -4.7329e-06 0.000353731)
(0.000392745 -2.29967e-05 0.000443679)
(0.000407989 -1.47676e-05 0.000398672)
(0.00043388 2.21697e-05 0.000514111)
(0.000500845 -3.56613e-05 0.000248847)
(0.000462525 -5.17102e-05 0.000333336)
(0.000473073 -5.28321e-05 0.00028034)
(0.00048672 -3.43734e-05 0.000353773)
(0.000521136 -8.68946e-05 0.00022948)
(0.000460552 -4.95018e-05 0.00038592)
(0.000428547 -4.36678e-05 0.000448803)
(0.000468253 -7.12763e-05 0.000430102)
(0.000472103 -1.56596e-05 0.000519333)
(0.000553172 -0.000102063 0.000409583)
(0.000512171 -0.000102056 0.000337978)
(0.000523963 -9.19851e-05 0.000274435)
(0.000509118 -6.89006e-05 0.000344225)
(0.000455554 -4.9326e-05 0.000178235)
(0.000452378 -4.01684e-05 0.000142523)
(0.000484349 -4.33459e-05 0.000182925)
(0.000331285 7.47423e-05 3.00365e-05)
(0.000341359 5.71688e-05 5.6888e-05)
(0.000294606 8.34223e-05 8.87804e-06)
(0.000318787 6.9696e-05 2.72843e-05)
(0.000362532 3.13028e-05 4.91115e-05)
(0.000407542 -1.28818e-06 7.16671e-05)
(0.000334929 4.56024e-05 4.82916e-05)
(0.000225872 8.2193e-05 -2.33672e-06)
(0.000308134 8.92571e-05 1.42674e-05)
(0.000142684 6.98651e-05 3.83536e-05)
(0.00015342 6.69224e-05 1.4586e-05)
(0.000255361 9.67888e-05 7.82426e-06)
(0.000269365 7.17613e-05 4.32723e-05)
(0.000247752 3.9828e-05 -1.64114e-05)
(0.00029046 4.85859e-05 2.78344e-05)
(0.000349432 3.78737e-05 1.92624e-05)
(0.000245741 7.65741e-05 6.20396e-06)
(0.000235221 5.47698e-05 1.10035e-05)
(0.000313188 5.44814e-05 1.74218e-05)
(0.00058529 -0.000136765 0.000195112)
(0.000569393 -0.000140336 0.0003494)
(0.000556475 -0.000137569 0.000276576)
(0.000581828 -0.000126705 0.000353924)
(0.000463582 -2.96223e-05 0.000110763)
(0.000506211 -0.0001028 0.000174557)
(0.0004657 -5.34944e-05 0.000152412)
(0.000470399 -7.4654e-05 0.000155571)
(0.000420598 -1.71337e-05 6.83207e-05)
(0.000456138 -5.86731e-05 0.000102887)
(0.000542479 -0.00011038 0.000139143)
(0.000586953 -0.000129437 0.000174192)
(0.000614758 -0.000197369 0.000244161)
(0.000577086 -0.000136626 0.000166882)
(0.00055203 -0.000145617 0.000196781)
(0.000385511 1.64904e-05 4.1427e-05)
(0.000396836 -8.08508e-06 4.05617e-05)
(0.000426672 -5.7546e-05 9.70296e-05)
(0.000398578 -8.12169e-06 7.01018e-05)
(0.000414484 -3.56513e-05 5.93077e-05)
(0.000327761 3.35305e-05 4.54234e-05)
(0.000374742 -4.8586e-06 4.22013e-05)
(0.000551741 -0.000102357 0.000101081)
(0.000582358 -0.000157659 0.000118417)
(0.000602005 -0.000158029 0.000109878)
(0.000465437 -6.97212e-05 0.000110509)
(0.00042843 -3.23875e-05 0.000123353)
(0.000477352 -6.93498e-05 8.97017e-05)
(0.000307782 5.42932e-05 0.00052595)
(0.000326447 3.53356e-05 0.000542652)
(0.000369368 -1.55178e-05 0.000579397)
(0.000368068 7.2613e-06 0.000571531)
(0.000314389 7.33098e-05 0.00053079)
(0.000356261 7.1491e-06 0.00053939)
(0.000455441 -2.7064e-05 0.000679266)
(0.000326208 2.79445e-05 0.000533412)
(0.000357738 1.48625e-05 0.000552659)
(0.000414378 2.52465e-05 0.000637876)
(0.000405885 -1.33934e-05 0.000562396)
(0.000373282 1.04621e-05 0.000526289)
(0.000417448 1.59937e-05 0.000597469)
(0.000484725 -1.87785e-05 0.000688357)
(0.000491243 1.90765e-05 0.000808748)
(0.000368729 4.86003e-05 0.00059076)
(0.000422595 4.87254e-05 0.000683716)
(0.000405275 5.11812e-05 0.000678201)
(0.000433633 2.09273e-06 0.000665411)
(0.000575161 -6.93572e-05 0.000812701)
(0.000532031 -0.000117385 0.000709471)
(0.00044064 6.18607e-05 0.000717011)
(0.000460859 -1.60239e-05 0.000678216)
(0.000413797 3.94823e-06 0.000581794)
(0.000467386 5.45209e-06 0.00066448)
(0.000456052 -4.17409e-05 0.00056702)
(0.000413616 -3.30169e-05 0.000491596)
(0.000463908 -1.50679e-05 0.000589997)
(-3.62077e-05 -2.9991e-05 0.000160894)
(0.000530909 -0.000113366 0.000632293)
(0.000502005 -8.17385e-05 0.000534113)
(0.000545359 -3.22624e-05 0.000662057)
(0.000431325 -2.58211e-05 0.000615469)
(0.000501085 -5.94659e-05 0.000633534)
(0.000568897 -4.63223e-05 0.000742557)
(0.000519613 -0.000110185 0.000521263)
(0.000512882 -0.000102548 0.000435766)
(0.000497594 -4.58787e-05 0.000541295)
(0.000635331 -4.28374e-05 0.000968542)
(0.000444187 3.46053e-06 0.000678922)
(-3.63558e-05 -2.58214e-05 0.000148714)
(0.000474492 -2.53517e-05 0.000676327)
(0.000548732 -1.62063e-05 0.000800276)
(0.00062036 -9.21569e-05 0.000870408)
(0.000635358 -0.000136781 0.000803624)
(0.000467186 -7.00154e-05 0.000579351)
(-4.1472e-05 -2.12639e-05 0.000160468)
(0.000580529 -0.000214582 0.000533388)
(0.000603389 -8.48532e-05 0.000721471)
(0.00061063 -0.0001055 0.000826954)
(0.000541515 -0.000112945 0.000678417)
(0.000601243 -7.20733e-05 0.000793619)
(0.000666323 -0.000150306 0.000771516)
(0.000598668 -0.000138942 0.000615097)
(0.000729413 -0.000251515 0.00078233)
(0.000653833 -0.000262817 0.000602693)
(0.00068063 -0.000181302 0.000758298)
(0.000480353 1.31615e-05 0.000751144)
(0.000485293 -4.25945e-05 0.000707688)
(0.000596767 -5.78969e-05 0.000860693)
(0.000639243 -6.25549e-05 0.000953186)
(0.000628119 -0.000161108 0.000867964)
(0.000577029 1.56232e-05 0.000865103)
(0.000654252 -0.000118115 0.000973779)
(0.000618932 5.16777e-05 0.00096416)
(0.000580271 -6.92955e-05 0.000854816)
(0.000570906 -0.000105798 0.000790443)
(0.000681202 -0.000143258 0.00093469)
(0.0005646 -0.00012254 0.000771387)
(0.000619295 -0.000178801 0.000742022)
(0.000700284 -0.000160866 0.000883067)
(0.000798802 -0.00025118 0.000943394)
(0.000615889 -0.000245095 0.000691282)
(0.000734202 -0.000351798 0.0006245)
(0.000742949 -0.000198726 0.000832776)
(0.000616966 -0.000180014 0.000418307)
(0.000513728 -0.0001756 0.000444927)
(0.00060117 -0.000191841 0.000452596)
(0.000584092 -9.62742e-05 0.000594183)
(0.00064041 -0.000175441 0.000594808)
(0.000641649 -0.00021616 0.00041157)
(0.00059108 -0.000205435 0.000363433)
(0.00065872 -0.000215463 0.000255546)
(0.000595932 -0.000162092 0.000349364)
(0.000688753 -0.000252957 0.000421388)
(0.000702718 -0.00029748 0.000292192)
(0.000684137 -0.000245375 0.000392634)
(0.000711856 -0.000265103 0.000596557)
(-4.41881e-05 -1.70994e-05 0.00015871)
(0.000684627 -0.000312508 0.000440455)
(0.000689191 -0.000233853 0.00058567)
(0.000812182 -0.000380598 0.000699748)
(0.000794961 -0.000409158 0.000474678)
(0.000743296 -0.000278043 0.000643723)
(-4.74757e-05 -1.24153e-05 0.000160019)
(0.000773836 -0.000365644 0.000477686)
(0.000813277 -0.000378616 0.000347246)
(-3.59787e-05 -3.43417e-05 0.000183106)
(0.000707998 -0.000275703 0.000450264)
(0.000639653 -0.000214907 0.000263695)
(-4.00277e-05 -2.70603e-05 0.000186352)
(0.000649918 -0.000192279 0.000223189)
(0.000633962 -0.000207301 0.000230058)
(-3.42687e-05 -3.41713e-05 0.00016842)
(0.000706367 -0.000203571 0.000175722)
(-3.74179e-05 -1.67282e-05 0.000169771)
(-4.07052e-05 -2.86408e-05 0.000183208)
(0.000728225 -0.000324621 0.00024674)
(0.000678598 -0.000243852 0.000220696)
(-4.18593e-05 -2.72211e-05 0.000182865)
(0.00067392 -0.000249181 0.00027634)
(0.000402218 -0.000240327 0.000221068)
(-4.53918e-05 -1.98044e-05 0.000178159)
(0.000465441 -0.000289082 0.000178875)
(0.000371929 -0.000233099 0.000176101)
(-4.4415e-05 -2.04523e-05 0.000182282)
(0.000270998 -0.000174657 0.00018206)
(0.000339449 -0.000225598 0.000183565)
(-4.83042e-05 -1.30752e-05 0.000190983)
(0.000245356 -0.000167356 0.000150384)
(0.000297689 -0.000171113 0.000228869)
(-3.71481e-05 -1.96317e-05 0.000164318)
(-3.36612e-05 -1.74158e-05 0.000151562)
(0.000343154 -0.000211082 0.000178355)
(-3.92856e-05 -2.3802e-05 0.000154024)
(-4.11404e-05 -1.82304e-05 0.000168298)
(0.000168175 -0.000102152 0.000150172)
(-3.95943e-05 -1.58565e-05 0.00015289)
(-4.35116e-05 -1.32409e-05 0.000166682)
(0.000227956 -0.000149539 0.000170896)
(-4.21092e-05 -1.26326e-05 0.000151057)
(0.000154692 -9.7094e-05 0.000131612)
(8.4412e-05 -3.98625e-05 0.00010034)
(0.00014239 -7.68977e-05 0.000151024)
(9.9511e-05 -3.95691e-05 0.00012017)
(6.77376e-05 -2.64641e-05 8.76663e-05)
(0.000111988 -4.82624e-05 0.000128812)
(7.89862e-05 -4.58391e-05 8.34362e-05)
(0.000170144 -8.85727e-05 0.000171087)
(0.000208989 -0.000117721 0.000169354)
(0.000222116 -0.000186816 8.66087e-05)
(0.000358132 -0.000262853 0.000117968)
(0.00025351 -0.000173018 0.000141834)
(9.73426e-05 -7.34106e-05 6.84569e-05)
(0.000212673 -0.000168501 0.000104275)
(0.000153329 -0.000105113 0.000116416)
(0.000109962 -7.26303e-05 0.000103366)