/*--------------------------------*- C++ -*----------------------------------*\
  =========                 |
  \\      /  F ield         | OpenFOAM: The Open Source CFD Toolbox
   \\    /   O peration     | Website:  https://openfoam.org
    \\  /    A nd           | Version:  7
     \\/     M anipulation  |
\*---------------------------------------------------------------------------*/
FoamFile
{
    version     2.0;
    format      ascii;
    class       volVectorField;
    location    "395";
    object      wallShearStress;
}
// * * * * * * * * * * * * * * * * * * * * * * * * * * * * * * * * * * * * * //

dimensions      [0 2 -2 0 0 0 0];

internalField   uniform (0 0 0);

boundaryField
{
    wall
    {
        type            calculated;
        value           nonuniform List<vector> 
73765
(
(7.68488e-11 -2.85577e-11 -5.08088e-11)
(2.11875e-10 -1.54355e-11 1.96846e-10)
(-1.73933e-11 -1.47674e-11 2.00812e-12)
(-1.3512e-10 -3.32826e-10 2.05826e-10)
(-5.13004e-10 -1.05174e-09 4.65615e-10)
(4.22614e-11 3.35363e-11 2.84299e-10)
(-4.92665e-10 -1.05253e-10 5.42385e-10)
(-1.04861e-10 -2.41337e-11 9.88576e-11)
(-4.40915e-10 -1.38795e-09 1.93222e-10)
(1.06969e-10 5.71386e-11 3.92549e-10)
(-3.23071e-10 4.00205e-11 5.61936e-10)
(1.57571e-10 2.89939e-10 2.07399e-10)
(3.19646e-11 2.85595e-10 4.26956e-10)
(-1.40526e-10 -2.15931e-10 1.72564e-10)
(-3.03417e-10 -5.01516e-10 2.53191e-10)
(-1.03243e-09 -1.20145e-09 6.64858e-10)
(-7.21851e-10 -7.28089e-10 7.31141e-10)
(-5.29972e-10 -1.11695e-09 2.39772e-10)
(-8.81489e-11 -1.3618e-09 -3.3853e-12)
(-7.28356e-11 -1.30635e-09 1.77333e-10)
(-2.75296e-10 -1.28141e-09 4.62526e-10)
(-1.63163e-10 -1.06498e-09 6.40751e-11)
(-4.42166e-10 -8.99379e-10 2.41869e-10)
(-2.28967e-10 -8.02107e-10 1.67782e-11)
(4.60105e-11 9.1577e-11 2.65857e-10)
(5.41537e-11 8.19968e-11 1.90833e-10)
(1.68946e-10 2.29956e-11 3.29765e-10)
(2.6335e-10 -1.50663e-10 -1.30961e-10)
(1.58354e-11 7.37122e-12 -6.54533e-12)
(-1.184e-10 -8.2141e-12 1.426e-11)
(-1.17104e-10 3.96788e-12 2.50766e-11)
(-9.95928e-11 -4.32285e-11 -9.88556e-12)
(-1.69363e-10 -9.84957e-11 1.39878e-10)
(-7.73887e-11 -1.07394e-09 -2.45259e-10)
(-3.80657e-10 -1.71452e-09 -1.8039e-11)
(8.48555e-11 -9.7041e-10 2.12989e-12)
(-1.37489e-09 -1.72216e-09 7.17498e-10)
(-4.26286e-10 -1.04667e-09 2.4606e-10)
(-1.10465e-09 -1.48013e-09 9.14195e-10)
(2.96622e-11 8.72311e-12 8.32969e-11)
(1.00221e-10 1.04447e-10 2.75865e-10)
(7.44472e-11 4.79378e-12 1.0541e-10)
(3.96195e-11 2.92688e-11 1.63851e-10)
(1.99223e-10 1.49894e-10 3.94569e-10)
(1.90564e-10 1.01478e-10 2.74659e-10)
(1.56351e-10 6.20857e-11 2.88243e-10)
(2.86022e-10 -1.28607e-10 -1.04594e-10)
(1.89605e-10 -1.0275e-10 -5.34858e-11)
(-1.81351e-10 -9.89311e-11 6.04039e-10)
(-2.36479e-10 -1.11199e-11 4.35358e-10)
(-1.08274e-10 -1.13077e-10 2.32071e-10)
(-1.46002e-10 -1.64329e-11 -6.88838e-11)
(4.58257e-11 1.08923e-11 2.64783e-11)
(-1.8086e-10 -2.42978e-11 6.84263e-11)
(-4.17157e-10 -7.45945e-10 3.52608e-10)
(-2.24153e-10 -4.46449e-10 2.56227e-10)
(-2.12002e-10 -5.68112e-10 3.32549e-10)
(6.0667e-11 -4.76033e-11 2.11396e-10)
(7.1724e-11 -1.26959e-10 1.70788e-10)
(2.88742e-10 -1.82267e-09 -1.10787e-10)
(2.08716e-10 -1.28787e-09 -7.80017e-11)
(1.29786e-10 -1.198e-09 -6.29415e-11)
(-7.50167e-10 -1.77469e-09 1.44919e-11)
(-2.62869e-10 -1.70561e-09 -1.03608e-10)
(-3.78066e-11 1.64476e-11 1.87397e-12)
(1.66345e-11 1.84722e-11 -2.3084e-11)
(1.47747e-11 2.047e-11 -2.8803e-11)
(8.25191e-12 2.14284e-11 -3.25279e-11)
(-5.79977e-12 2.12562e-11 -3.69102e-11)
(1.89833e-10 -1.24358e-09 6.25981e-11)
(-6.57929e-10 -1.35078e-09 3.34363e-10)
(-4.03935e-10 -1.35467e-09 8.30904e-11)
(-1.07795e-09 -1.38169e-09 3.99152e-10)
(-1.02851e-09 -1.60409e-09 5.03663e-10)
(-7.51387e-10 -1.07264e-09 2.19532e-10)
(-5.54273e-10 -8.90905e-10 2.60676e-10)
(-6.17888e-10 -1.19174e-09 7.79677e-11)
(-8.93958e-10 -8.2284e-10 8.28892e-10)
(-1.18305e-09 -1.31055e-09 6.17617e-10)
(-6.03518e-10 -7.72782e-10 8.31654e-10)
(-4.7475e-10 -6.50667e-10 5.72947e-10)
(-1.31626e-10 -1.34958e-09 5.45005e-11)
(-2.47786e-10 -9.95375e-10 1.12054e-10)
(-4.04187e-10 -1.55549e-09 1.15394e-09)
(-3.0487e-10 -1.6644e-09 1.11333e-09)
(-4.39571e-10 -1.28049e-09 7.61529e-10)
(-3.8195e-10 -1.29394e-09 5.45373e-10)
(-1.96179e-10 -9.8894e-10 1.11212e-10)
(-1.00753e-09 -1.8367e-09 1.3096e-09)
(-5.27268e-10 -8.88538e-10 2.38099e-10)
(-5.04349e-10 -1.2187e-09 3.2079e-10)
(2.30147e-10 5.25997e-11 3.65998e-10)
(-2.20905e-10 6.987e-11 4.01056e-10)
(-1.57036e-10 -1.61057e-09 -7.95459e-11)
(2.83842e-10 -1.67612e-09 -1.34177e-10)
(-3.70084e-10 -1.90776e-09 -4.59043e-11)
(-1.49418e-10 -2.32916e-11 6.76442e-10)
(-2.49096e-10 -3.65448e-11 4.94408e-10)
(-1.24066e-10 -3.42853e-11 2.1112e-11)
(-1.44484e-10 -1.08306e-09 7.85989e-11)
(4.31341e-11 6.96291e-11 1.53136e-10)
(-1.69647e-10 -3.89295e-11 5.1131e-10)
(-9.36971e-11 2.55981e-11 -8.12647e-11)
(5.21926e-11 -2.34231e-12 1.55574e-11)
(3.4425e-10 3.84925e-10 5.40559e-10)
(6.72552e-10 3.71975e-10 6.94903e-10)
(-1.51818e-10 -6.81591e-11 -6.73409e-12)
(-1.69824e-10 -1.42983e-10 1.46621e-10)
(-1.50601e-10 -1.42321e-10 1.51972e-10)
(-9.19142e-11 -3.16503e-12 3.93818e-12)
(-1.33622e-10 -1.56641e-11 3.14109e-11)
(1.35624e-10 -5.18003e-10 -3.21193e-11)
(-1.5599e-10 -1.25808e-09 -2.37402e-10)
(-1.18515e-10 -9.851e-10 -2.197e-10)
(-2.20608e-10 -1.50974e-09 -1.91856e-10)
(4.02875e-11 -8.00124e-11 1.77939e-10)
(-2.82009e-11 1.80645e-11 -1.66595e-11)
(-2.02772e-10 -7.85363e-10 -5.1865e-12)
(-6.13909e-10 -1.61199e-09 3.2327e-10)
(-4.46036e-10 -1.34039e-09 6.96179e-10)
(2.17288e-10 -8.62842e-12 2.0152e-10)
(2.10954e-10 -5.93104e-11 1.34384e-11)
(2.21563e-10 -1.42693e-10 -8.64953e-11)
(-1.75138e-10 -6.29482e-11 1.05109e-10)
(-1.96916e-10 -1.33554e-09 -2.31463e-10)
(-1.63692e-10 -1.00378e-09 -2.15349e-10)
(-2.69004e-11 -8.16889e-10 -2.08205e-11)
(-3.86309e-10 -1.75296e-09 9.29676e-12)
(-9.20193e-10 -1.50699e-09 6.3176e-10)
(-1.11171e-10 -8.59459e-10 2.3801e-12)
(-1.95368e-10 -8.28965e-10 -3.814e-11)
(8.65689e-11 8.88869e-11 3.38013e-10)
(1.19705e-10 9.79429e-11 3.29401e-10)
(2.25422e-10 -5.31889e-12 2.69237e-10)
(1.82954e-10 -1.48167e-11 2.72658e-10)
(3.28927e-10 -1.19933e-10 -7.98952e-11)
(3.12133e-10 -1.16562e-10 -4.00774e-11)
(2.49332e-10 -8.21766e-11 -1.59816e-11)
(2.60534e-10 -1.23718e-10 -2.056e-11)
(2.27089e-10 -8.58937e-11 -3.09615e-11)
(2.60754e-10 -1.26874e-10 -6.14993e-11)
(2.38334e-10 -8.85323e-11 -2.55615e-11)
(1.79167e-10 -5.31681e-11 -1.62633e-11)
(1.37693e-10 -5.63658e-11 -2.17549e-11)
(1.82781e-10 -8.67514e-11 -2.96374e-11)
(1.65723e-10 -8.63106e-11 -1.63816e-11)
(1.63133e-10 -8.47215e-11 -9.52747e-11)
(-1.74823e-10 -8.23828e-11 6.56414e-10)
(-2.26796e-10 -7.23929e-11 6.80811e-10)
(-9.26722e-13 -3.6908e-13 -7.76589e-13)
(1.36981e-10 1.83753e-09 8.98611e-09)
(-1.33218e-10 -1.0853e-11 -6.79473e-11)
(-1.46622e-10 -1.77421e-11 -8.90239e-11)
(7.35101e-10 4.33597e-10 5.6037e-10)
(4.24849e-10 3.59205e-10 2.97132e-10)
(9.22481e-10 3.77483e-10 4.44351e-10)
(4.56161e-10 4.33678e-10 5.03328e-10)
(7.80043e-10 4.41393e-10 6.61184e-10)
(7.5776e-10 3.98723e-10 5.41911e-10)
(-1.41497e-10 -3.71307e-11 2.74663e-11)
(-1.72164e-10 -1.32323e-10 2.91623e-11)
(-1.89339e-10 -1.33772e-10 5.9891e-11)
(-1.26222e-10 -6.15666e-11 1.6822e-11)
(-9.63388e-11 1.47042e-11 2.84554e-11)
(-1.59355e-10 -1.97836e-10 2.2151e-11)
(-1.59189e-10 -2.74077e-10 1.93277e-10)
(-1.58269e-10 -1.49957e-10 7.79461e-12)
(-1.55081e-10 -2.14776e-10 4.07745e-11)
(-1.70428e-10 -2.21808e-11 9.45536e-11)
(-1.82766e-10 -3.04064e-11 4.59656e-11)
(-1.7571e-10 -4.29151e-11 6.96224e-11)
(-1.46335e-10 9.36376e-12 9.89586e-11)
(-1.69506e-10 -1.98985e-11 6.93691e-11)
(-1.80043e-10 -6.15583e-11 2.76343e-11)
(-1.38538e-10 -1.318e-10 1.39651e-10)
(-2.08266e-10 -1.16835e-10 7.54181e-11)
(-1.01446e-10 -1.54689e-11 2.13686e-12)
(-3.8166e-10 -7.65014e-10 4.96257e-10)
(-1.4419e-10 -2.28949e-10 -4.79138e-11)
(1.0578e-10 -3.79901e-10 1.08382e-10)
(-1.07383e-10 -7.8848e-10 -1.72369e-10)
(-8.15945e-12 -6.56e-10 1.8149e-11)
(9.80268e-11 -3.77979e-10 1.31691e-10)
(-1.44609e-10 -9.50362e-13 1.08576e-10)
(-1.68344e-10 -1.22747e-11 1.07864e-10)
(-7.71505e-11 6.23899e-14 1.20111e-10)
(-1.68804e-10 -4.2374e-11 1.20779e-10)
(-1.42645e-10 -1.01048e-10 1.24342e-10)
(-1.39449e-10 -6.01849e-11 3.06233e-11)
(-7.61535e-11 -2.01997e-10 1.81853e-10)
(-2.44786e-10 -2.18449e-09 -4.01363e-10)
(-8.14476e-11 -8.03234e-10 -1.22025e-10)
(-6.68563e-11 -3.87757e-12 1.31298e-10)
(1.05606e-10 -9.99698e-10 -1.05446e-10)
(-5.37769e-10 -2.44567e-09 -1.08485e-10)
(-1.84801e-10 -1.49505e-09 -1.48783e-10)
(-7.40711e-10 -1.63939e-09 6.90206e-12)
(-7.38411e-10 -1.78673e-09 1.22008e-11)
(-1.67945e-12 2.2112e-11 -3.55606e-11)
(-1.32245e-09 -1.69374e-09 3.66389e-10)
(-1.00367e-09 -1.69177e-09 7.60688e-10)
(-6.77136e-10 -1.90016e-09 3.27855e-10)
(-5.01976e-10 -1.36446e-09 6.62338e-11)
(-1.24027e-09 -1.72853e-09 1.16694e-09)
(-5.90184e-10 -7.69602e-10 3.92552e-10)
(-1.34307e-09 -1.80565e-09 6.22915e-10)
(-1.59882e-10 -1.36753e-09 2.32847e-10)
(-4.3477e-11 -8.14939e-10 5.94689e-11)
(-1.6888e-10 -1.74235e-09 3.67561e-10)
(-8.94912e-11 -1.15658e-09 2.19028e-11)
(-8.18114e-10 -1.26848e-09 3.97066e-10)
(-9.25207e-10 -1.81346e-09 5.61719e-10)
(-7.53978e-10 -1.38032e-09 4.20747e-10)
(-2.21507e-10 1.32104e-10 4.06358e-10)
(-1.17136e-11 -1.77696e-11 5.61594e-12)
(-2.46302e-10 -6.60348e-12 5.07588e-10)
(-2.15784e-10 -2.00462e-09 -4.05617e-10)
(-4.89313e-10 -1.75868e-09 2.50031e-11)
(-1.26107e-10 -4.0977e-11 4.15769e-10)
(3.00206e-10 -7.98069e-11 -2.76271e-11)
(-4.68948e-10 -1.74171e-09 4.87304e-11)
(-5.68841e-10 -1.17048e-09 4.92691e-10)
(2.9301e-10 1.30159e-10 3.11716e-10)
(2.22373e-10 -1.06157e-10 -2.41491e-11)
(2.09117e-10 -8.06368e-11 -2.83787e-11)
(1.10581e-11 3.16278e-12 -8.61801e-12)
(-9.47612e-11 -6.91465e-10 6.08574e-11)
(1.39538e-10 -7.82866e-11 -5.36557e-11)
(-3.6865e-10 -7.03218e-11 6.59057e-10)
(-8.05087e-11 2.2503e-11 -6.93501e-11)
(7.13108e-11 3.0696e-11 3.60411e-11)
(-1.68209e-10 -1.76837e-10 7.16782e-11)
(-1.63559e-10 -1.74287e-10 6.74034e-11)
(-6.12374e-11 1.97344e-12 1.27577e-10)
(8.03855e-12 4.69308e-13 -1.92676e-11)
(1.24401e-12 1.4324e-12 -1.88246e-12)
(2.681e-10 -5.76096e-11 3.06622e-10)
(5.49921e-11 2.18567e-12 7.93382e-11)
(3.69718e-12 -5.16455e-11 -1.05e-10)
(3.82719e-12 7.29073e-12 3.66425e-11)
(1.33036e-11 3.76888e-12 -5.57861e-12)
(5.7871e-11 -7.04663e-12 4.21329e-11)
(2.13672e-10 -6.90436e-11 2.12648e-10)
(1.94562e-10 -3.77292e-11 3.14963e-10)
(-1.05192e-10 2.58658e-11 1.17952e-10)
(1.85712e-11 3.01662e-12 -3.89034e-11)
(-2.59913e-11 -1.11666e-11 -1.0164e-11)
(-1.54796e-11 -1.18671e-11 -1.75098e-12)
(-4.44222e-11 -1.62006e-10 3.49288e-10)
(3.05452e-10 -1.17135e-10 -9.47725e-11)
(1.57209e-10 -7.52284e-11 -3.09905e-11)
(-1.90131e-10 -6.32045e-11 3.8304e-10)
(1.26684e-11 1.73365e-12 -8.12394e-12)
(-2.10223e-11 -6.05779e-12 -9.03483e-12)
(-4.42188e-11 -4.40847e-12 -2.57513e-11)
(6.08282e-11 5.59754e-11 1.1818e-10)
(-6.24517e-11 -3.05899e-10 2.30625e-10)
(6.04976e-11 9.48471e-11 1.47466e-10)
(-2.02422e-11 -4.23568e-11 1.18373e-10)
(-9.71181e-10 -2.32693e-09 6.13833e-11)
(4.63114e-11 2.47953e-11 7.29485e-11)
(7.29112e-11 1.03881e-10 2.89732e-10)
(1.6185e-11 9.71233e-11 2.8537e-10)
(6.7402e-11 -3.00904e-11 -5.09256e-11)
(1.6918e-11 -2.32975e-12 -1.06396e-11)
(5.39889e-12 5.17326e-13 -4.98257e-12)
(1.69042e-12 1.29686e-12 -2.26673e-12)
(-1.70768e-10 1.20898e-13 4.68909e-10)
(-1.54042e-10 3.73715e-11 4.42635e-10)
(-1.62143e-10 6.6116e-11 4.62641e-10)
(-2.13584e-12 4.90871e-13 1.3243e-12)
(-6.27371e-12 2.30687e-12 1.13329e-12)
(-8.64392e-12 2.34566e-12 8.99074e-13)
(-8.12532e-12 2.37748e-12 1.0001e-12)
(-1.19753e-10 9.57702e-12 3.69785e-10)
(-2.76031e-12 1.15424e-12 5.39707e-13)
(5.61831e-11 -6.96808e-12 4.08967e-11)
(-1.45101e-10 3.69383e-11 4.07603e-10)
(6.2995e-11 -8.48784e-12 4.51746e-11)
(6.89142e-11 -1.15111e-11 5.06403e-11)
(-4.89763e-10 -1.01391e-11 -1.08288e-10)
(-5.59664e-11 2.68894e-11 2.30883e-10)
(-5.40559e-11 2.53923e-11 2.09912e-10)
(-5.95479e-12 -4.71183e-13 3.49271e-11)
(-1.21744e-10 -1.69437e-11 -3.96715e-11)
(-1.32454e-10 -2.99166e-12 -5.7149e-11)
(1.04074e-10 -1.13128e-11 -2.7254e-11)
(-8.5245e-11 2.11104e-11 -7.32677e-11)
(-2.50088e-10 1.93687e-11 2.44229e-10)
(-4.49783e-11 -5.443e-12 -2.25655e-11)
(1.90433e-11 -6.18761e-12 1.59727e-11)
(-2.80625e-11 -1.38531e-11 -1.30511e-11)
(-1.72975e-11 -1.37785e-11 -4.70862e-12)
(5.90432e-11 6.23592e-11 1.15538e-10)
(5.81743e-11 7.38266e-11 1.22112e-10)
(-3.20296e-11 -1.31056e-10 1.87695e-10)
(-9.18124e-11 -1.62871e-10 2.16834e-10)
(-2.87515e-11 -9.95689e-11 2.69283e-11)
(-6.25446e-11 -3.45984e-10 3.8288e-11)
(-4.72555e-11 -1.37652e-10 1.50409e-11)
(-1.326e-10 -5.82274e-10 2.59383e-10)
(-1.73312e-11 -8.76136e-12 -5.31562e-12)
(-1.227e-11 -8.73377e-12 -3.08899e-12)
(4.68972e-11 4.37906e-11 1.08512e-10)
(4.2263e-11 6.60024e-11 1.48574e-10)
(4.53269e-11 9.90744e-12 8.2513e-11)
(1.04738e-10 -2.25446e-11 4.1446e-10)
(8.07299e-11 8.0973e-11 3.38104e-10)
(5.54053e-11 8.31581e-11 2.19444e-10)
(3.53309e-11 4.08668e-11 1.35679e-10)
(4.84504e-11 2.9518e-11 8.16258e-11)
(4.26243e-11 7.59046e-11 1.36622e-10)
(2.14075e-10 6.40485e-11 3.39968e-10)
(1.47161e-10 9.11327e-11 3.66827e-10)
(3.61735e-11 9.68342e-11 2.37064e-10)
(4.63129e-11 5.18846e-11 9.78385e-11)
(2.0658e-10 8.90835e-11 3.52882e-10)
(1.67974e-11 1.05877e-10 1.98667e-10)
(4.50089e-11 -2.26836e-13 7.49505e-11)
(1.74936e-10 -4.77168e-11 2.92094e-10)
(1.91484e-10 7.81689e-11 3.26968e-10)
(9.65664e-11 7.3299e-11 3.073e-10)
(3.90314e-11 -1.90627e-12 1.03489e-10)
(4.10682e-11 8.61616e-12 6.00607e-11)
(4.37022e-11 2.40447e-11 6.7911e-11)
(1.90902e-10 7.38069e-11 2.92475e-10)
(7.21908e-12 1.08024e-10 1.65123e-10)
(3.56734e-11 -1.78115e-12 1.14992e-10)
(2.10712e-10 -6.62379e-12 3.64554e-10)
(2.95565e-11 8.88374e-11 2.68976e-10)
(3.12166e-11 4.95936e-14 1.14952e-10)
(3.58396e-11 -3.59306e-12 6.516e-11)
(1.98808e-10 -3.93354e-11 3.1258e-10)
(4.2888e-11 1.70665e-11 6.4212e-11)
(1.59772e-10 2.40629e-11 2.24198e-10)
(1.35146e-11 9.83408e-11 1.3928e-10)
(4.50948e-11 6.29696e-11 3.10187e-10)
(-1.94553e-11 7.37701e-11 2.49502e-10)
(-3.35475e-11 1.00947e-10 2.04476e-10)
(2.6545e-11 9.44693e-11 2.74157e-10)
(2.99583e-11 1.87259e-12 1.27359e-10)
(4.93236e-11 3.68283e-11 8.73904e-11)
(2.04917e-10 7.33659e-11 2.76506e-10)
(4.79762e-11 4.75958e-11 3.0594e-10)
(-2.14879e-11 9.44396e-11 1.59362e-10)
(-5.78418e-12 7.46897e-11 2.17383e-10)
(2.5072e-11 5.59763e-12 1.28138e-10)
(1.05413e-10 8.86334e-11 3.25587e-10)
(3.82379e-11 -4.00331e-12 6.71116e-11)
(2.14177e-10 -1.94075e-12 3.76267e-10)
(2.27006e-10 -5.45385e-11 3.61835e-10)
(1.86743e-10 2.81165e-11 2.63434e-10)
(5.70202e-11 6.18808e-11 1.22067e-10)
(2.30783e-10 7.64435e-11 2.99526e-10)
(5.70272e-11 2.68331e-11 3.09213e-10)
(-1.34827e-11 7.8963e-11 2.13787e-10)
(2.98451e-11 1.01277e-11 1.39311e-10)
(3.80239e-11 3.59261e-12 1.17264e-10)
(4.90694e-11 -5.5954e-12 7.50947e-11)
(7.30612e-11 2.70644e-11 1.12695e-10)
(7.98386e-11 3.53877e-11 3.93613e-10)
(-9.2216e-12 8.10207e-11 1.25922e-10)
(-1.89008e-11 5.24145e-11 1.68722e-10)
(-5.33636e-12 3.41672e-11 1.59526e-10)
(1.32466e-11 2.30521e-11 1.49864e-10)
(3.04799e-11 1.49466e-11 1.42959e-10)
(4.46183e-11 8.32381e-12 1.2871e-10)
(2.85815e-10 -4.71653e-11 7.71603e-10)
(1.00527e-10 5.74061e-11 1.69955e-10)
(8.6952e-11 -1.88462e-10 -1.40606e-10)
(1.98341e-11 7.62688e-11 1.29868e-10)
(-4.65272e-12 3.4548e-11 1.4614e-10)
(1.47685e-11 2.4831e-11 1.45214e-10)
(3.73903e-11 1.75936e-11 1.40746e-10)
(5.06095e-11 1.2457e-11 1.35589e-10)
(-5.31196e-12 1.19009e-10 2.05173e-10)
(6.53971e-11 -2.05073e-12 1.08492e-10)
(1.0043e-10 3.56929e-12 1.36497e-10)
(4.82404e-10 -1.87079e-10 -1.15582e-10)
(2.10166e-10 6.23621e-11 2.41455e-10)
(4.36524e-10 -1.7821e-10 -8.72619e-11)
(3.91112e-10 -1.63819e-10 -8.43413e-11)
(3.60765e-10 -1.74746e-10 -1.37342e-10)
(-3.30646e-11 1.90312e-12 9.76689e-12)
(-2.11024e-11 1.75587e-11 4.29843e-11)
(2.06863e-11 2.45895e-11 1.27504e-10)
(4.1674e-11 1.95438e-11 1.3495e-10)
(3.56407e-10 -1.62508e-10 -7.424e-11)
(8.54757e-11 5.79985e-11 1.50611e-10)
(1.95501e-10 -1.80787e-10 -2.00138e-10)
(1.24666e-10 -1.60547e-10 -2.14502e-10)
(6.43287e-11 -1.3147e-10 -2.01926e-10)
(2.03828e-11 -8.25128e-11 -1.51102e-10)
(3.65121e-13 -4.04071e-11 -9.06672e-11)
(-6.35721e-12 -1.10914e-11 -2.82287e-11)
(-4.99531e-12 4.73489e-12 2.13319e-11)
(7.00308e-12 1.87199e-11 4.75883e-11)
(-2.31657e-11 5.60895e-11 7.58825e-11)
(1.13352e-10 4.26928e-13 1.42345e-10)
(2.1161e-10 6.61142e-11 2.21852e-10)
(1.30855e-10 4.51672e-11 1.68777e-10)
(9.19079e-12 4.9831e-12 2.54886e-11)
(1.62384e-10 1.98992e-11 1.51154e-10)
(3.19253e-10 -5.643e-11 -2.8801e-10)
(3.36879e-10 -8.10946e-11 -1.52154e-10)
(2.01708e-10 4.92143e-11 2.11044e-10)
(4.66435e-11 5.51556e-12 6.35567e-11)
(1.76393e-10 -9.10804e-11 -8.45695e-11)
(2.82152e-11 -4.87634e-12 1.69299e-11)
(1.32197e-10 1.075e-11 1.3341e-10)
(1.2288e-10 -3.47539e-11 -2.34738e-10)
(1.80115e-10 3.88259e-11 1.64595e-10)
(2.04767e-10 4.78651e-11 1.94425e-10)
(7.3591e-11 5.05617e-12 8.33466e-11)
(1.35396e-10 -7.59699e-11 -1.09557e-10)
(1.16411e-10 -6.87979e-11 -1.228e-10)
(9.24301e-11 -5.87413e-11 -1.30269e-10)
(1.48072e-10 1.73986e-11 1.40927e-10)
(1.07957e-10 -3.65285e-11 -1.7473e-10)
(1.90511e-10 -2.8636e-11 -1.46931e-10)
(9.78445e-11 3.01996e-12 9.81538e-11)
(7.39383e-11 -3.67021e-11 -9.9186e-11)
(5.97803e-11 -2.65975e-11 -9.42182e-11)
(6.99864e-11 -1.48206e-11 2.25192e-11)
(7.93173e-11 -3.05336e-11 -1.21039e-10)
(1.67545e-10 2.75973e-11 1.46053e-10)
(1.41424e-10 -2.99812e-11 -7.80112e-11)
(1.84145e-10 8.60246e-12 1.71372e-10)
(1.00165e-10 1.25854e-13 9.43166e-11)
(1.22948e-10 1.81893e-12 1.13728e-10)
(5.12183e-11 -1.41569e-11 -7.2919e-11)
(9.05899e-11 -9.91484e-12 5.26087e-11)
(1.66858e-10 2.1345e-11 1.36194e-10)
(4.67943e-11 -3.28863e-11 -6.70462e-11)
(1.01532e-10 -2.8258e-11 -6.53253e-11)
(2.08512e-10 4.21957e-12 1.85115e-10)
(4.03686e-11 -5.8407e-12 -1.45808e-12)
(7.19156e-11 2.9893e-12 3.057e-11)
(1.13265e-10 -3.80153e-13 1.00882e-10)
(4.11682e-11 -5.52273e-12 -5.29566e-11)
(1.09708e-10 -9.12806e-12 6.91345e-11)
(1.82973e-10 2.12378e-11 1.51305e-10)
(3.75922e-11 -2.40209e-11 -2.9736e-11)
(6.63904e-11 -2.00447e-11 -4.17185e-12)
(7.53297e-11 -2.82531e-11 -5.50679e-11)
(6.35562e-11 -2.68905e-11 -5.98508e-11)
(2.36514e-10 4.13424e-11 2.20884e-10)
(2.20026e-10 1.25215e-12 1.90577e-10)
(2.33303e-11 -9.66191e-13 -1.2404e-11)
(5.96943e-11 -1.03202e-11 1.11587e-11)
(7.07855e-11 2.6655e-12 3.4884e-11)
(7.29604e-11 -3.28602e-13 4.64287e-11)
(1.23991e-10 -2.14119e-12 1.05747e-10)
(1.2249e-10 -9.15323e-12 7.94043e-11)
(8.13192e-11 -2.24247e-11 3.29422e-11)
(4.5073e-11 -2.37491e-11 -4.12746e-11)
(3.82315e-11 -2.35569e-11 -4.02691e-11)
(2.04752e-10 4.34433e-11 1.77576e-10)
(2.50401e-10 4.52707e-11 2.29684e-10)
(2.38238e-10 -1.9177e-12 2.02883e-10)
(1.72018e-11 1.66015e-12 -1.47622e-11)
(2.23731e-11 -3.74453e-12 -2.82801e-12)
(7.06853e-11 -6.45326e-13 4.66899e-11)
(7.79399e-11 -1.33019e-12 5.7587e-11)
(1.40074e-10 -3.52613e-12 1.12412e-10)
(2.60146e-11 1.16032e-12 -3.07127e-11)
(1.38289e-10 -1.16504e-11 8.60516e-11)
(2.0912e-10 2.17779e-11 1.55484e-10)
(8.33978e-11 -1.4819e-11 4.54856e-11)
(2.01506e-10 3.52439e-11 1.61085e-10)
(1.49348e-11 -1.56452e-11 -1.96605e-11)
(1.3677e-11 -1.17749e-11 -1.35257e-11)
(2.2064e-10 4.53128e-11 1.89428e-10)
(-2.64696e-10 -7.63539e-11 5.12148e-10)
(-2.57366e-10 -7.86554e-11 4.77672e-10)
(2.65969e-10 1.72759e-11 2.37887e-10)
(9.81409e-12 3.33184e-12 -1.22476e-11)
(7.43119e-11 -2.37759e-12 5.72792e-11)
(8.83769e-11 -2.02203e-12 6.94823e-11)
(9.94578e-11 -1.96288e-12 7.77377e-11)
(1.59335e-10 -6.01923e-12 1.22976e-10)
(1.5964e-11 1.81074e-12 -1.96165e-11)
(1.47017e-10 -1.32896e-11 8.88987e-11)
(2.08001e-10 2.23891e-11 1.51414e-10)
(2.26412e-10 4.18999e-11 1.82906e-10)
(-2.48714e-10 -7.4021e-11 4.88456e-10)
(2.49485e-10 4.98111e-11 2.2023e-10)
(2.80896e-10 1.86742e-11 2.48758e-10)
(-2.2285e-10 -4.63e-11 3.9048e-10)
(2.8819e-12 3.72155e-12 -7.05531e-12)
(8.31233e-11 -3.0544e-12 6.63311e-11)
(9.42374e-11 -2.32761e-12 7.39534e-11)
(1.15256e-10 -1.16147e-12 8.88868e-11)
(1.59908e-10 -3.76566e-12 1.17216e-10)
(1.75845e-10 -7.00615e-12 1.28439e-10)
(-2.10788e-10 -8.37861e-12 4.61936e-10)
(8.39793e-12 1.9442e-12 -8.26273e-12)
(1.56959e-10 -1.58273e-11 9.15564e-11)
(2.36203e-10 2.93799e-11 1.65003e-10)
(-1.59807e-10 -6.48406e-11 4.23492e-10)
(-2.14897e-12 -3.08067e-12 -2.96548e-12)
(-2.50502e-12 -9.4859e-13 -7.84644e-13)
(1.09883e-12 2.48814e-12 2.71311e-12)
(2.05344e-11 5.89982e-12 1.04537e-11)
(2.49503e-10 5.00815e-11 2.22174e-10)
(-2.22976e-10 -8.32283e-11 4.37289e-10)
(-2.29519e-10 -7.55364e-11 4.14732e-10)
(2.83158e-10 1.39633e-11 2.4612e-10)
(-9.40491e-13 -1.27909e-12 1.98501e-12)
(5.44521e-11 -2.85904e-12 3.66892e-11)
(-1.95501e-10 -1.47471e-11 3.59024e-10)
(-1.42464e-12 3.97249e-12 -3.36603e-12)
(1.0629e-10 -1.83946e-12 8.26418e-11)
(1.21139e-10 -7.57741e-13 9.03302e-11)
(1.64017e-10 -4.34392e-12 1.14898e-10)
(1.81305e-10 -9.04329e-12 1.28172e-10)
(-2.09453e-10 8.94918e-12 4.51488e-10)
(-2.09477e-10 9.80296e-12 4.68955e-10)
(-2.32531e-10 1.73471e-11 5.1289e-10)
(-2.71142e-10 -2.06907e-12 4.72972e-10)
(1.69723e-10 -1.91498e-11 9.17929e-11)
(2.37404e-10 2.60674e-11 1.63986e-10)
(-1.82128e-10 -6.76178e-11 4.13061e-10)
(-1.46521e-10 -3.41009e-11 5.40281e-10)
(8.65278e-13 -2.24375e-12 -1.91471e-12)
(-2.56878e-12 -1.16068e-12 -7.46581e-13)
(-5.36443e-12 -2.9865e-13 -8.54621e-14)
(-7.42492e-12 5.41807e-13 3.63125e-13)
(-8.23914e-12 1.47006e-12 7.1411e-13)
(-6.86733e-12 2.38801e-12 1.04791e-12)
(3.13312e-12 3.6986e-12 1.95617e-12)
(-3.30654e-12 2.78496e-13 4.46719e-13)
(3.84538e-11 -7.23979e-12 1.16295e-11)
(2.96063e-10 1.30982e-11 2.57834e-10)
(5.7682e-11 -4.8223e-12 4.42282e-11)
(1.14504e-10 -1.67701e-12 8.67623e-11)
(1.3372e-10 5.29066e-13 9.63848e-11)
(1.73636e-10 -5.6444e-12 1.20317e-10)
(1.9602e-10 -9.66286e-12 1.33992e-10)
(-1.95235e-10 1.46723e-11 4.34711e-10)
(-2.06431e-10 2.43549e-11 4.8154e-10)
(-2.41314e-10 2.82624e-11 5.42439e-10)
(-2.8401e-10 2.66304e-11 5.49046e-10)
(-2.91147e-10 1.86537e-11 6.64482e-10)
(-3.33657e-10 -4.39139e-11 5.31875e-10)
(-1.26572e-10 -2.79884e-11 5.05509e-10)
(-2.11645e-10 -6.44443e-11 3.99616e-10)
(-2.09003e-10 3.94715e-11 6.05196e-10)
(-1.99353e-10 -5.81541e-11 3.38087e-10)
(2.99567e-10 1.03893e-11 2.57975e-10)
(-1.99888e-12 1.68242e-12 2.73868e-13)
(6.30049e-11 -6.53078e-12 5.07441e-11)
(-1.74947e-10 -1.17727e-11 3.22031e-10)
(-2.37347e-10 8.69356e-11 5.3249e-10)
(1.25768e-10 5.52026e-13 8.97153e-11)
(1.41911e-10 9.68574e-13 9.98452e-11)
(1.8317e-10 -6.10631e-12 1.22725e-10)
(2.08585e-10 -1.34927e-11 1.36994e-10)
(-1.81314e-10 1.32567e-11 3.88771e-10)
(-1.91271e-10 2.43712e-11 4.42482e-10)
(-2.46548e-10 4.42706e-11 5.5464e-10)
(-2.55062e-10 3.9443e-11 5.79509e-10)
(-2.23531e-10 2.65605e-11 5.77429e-10)
(-1.50291e-10 -5.80218e-11 3.43652e-10)
(-1.09699e-10 -1.20893e-11 4.56707e-10)
(-1.51173e-10 3.91814e-11 5.13837e-10)
(-1.95467e-10 -6.85484e-11 3.63146e-10)
(3.94218e-11 -3.44498e-12 2.82672e-11)
(4.65678e-11 -5.23257e-12 3.41133e-11)
(3.09501e-10 6.7951e-12 2.64487e-10)
(7.63964e-11 -6.07036e-12 6.2537e-11)
(1.37988e-10 9.40615e-13 9.62312e-11)
(1.5646e-10 3.14955e-12 1.03375e-10)
(1.98613e-10 -8.54783e-12 1.24895e-10)
(2.28184e-10 -1.57308e-11 1.41486e-10)
(-1.69645e-10 1.78479e-11 3.92026e-10)
(-2.25811e-10 4.47857e-11 5.36485e-10)
(-2.20814e-10 4.74993e-11 5.43701e-10)
(1.75984e-10 -2.90778e-11 8.54832e-11)
(-1.65878e-10 -5.02212e-11 3.28587e-10)
(-1.00487e-10 1.42819e-12 4.29032e-10)
(-1.8101e-10 -5.98289e-11 3.41285e-10)
(5.29252e-11 -6.33809e-12 3.90274e-11)
(3.04163e-10 3.86638e-12 2.56771e-10)
(8.29257e-11 -7.26997e-12 6.60735e-11)
(-1.48756e-10 -9.22711e-12 2.7801e-10)
(1.48599e-10 4.07584e-12 9.93736e-11)
(1.63675e-10 4.43886e-12 1.03865e-10)
(1.77871e-10 3.41433e-12 1.07756e-10)
(2.12162e-10 -9.51776e-12 1.2366e-10)
(2.39913e-10 -2.00349e-11 1.37697e-10)
(-1.57903e-10 1.557e-11 3.4406e-10)
(-1.9859e-10 4.7957e-11 5.05769e-10)
(-2.05277e-10 5.08466e-11 5.25975e-10)
(1.83728e-10 -3.35356e-11 8.48094e-11)
(-1.72742e-10 -4.43997e-11 3.15373e-10)
(-9.05586e-11 1.54124e-11 4.1257e-10)
(-1.81911e-10 -5.05225e-11 3.23814e-10)
(-1.75746e-10 4.85247e-11 5.24221e-10)
(2.96327e-10 -1.16951e-12 2.50179e-10)
(-1.52168e-10 -2.84579e-11 2.49106e-10)
(-1.90399e-10 3.32629e-11 5.2529e-10)
(8.97385e-11 -5.74286e-12 7.11496e-11)
(-1.79879e-10 3.32107e-11 4.94043e-10)
(1.78589e-10 6.65545e-12 1.0734e-10)
(1.91159e-10 5.6082e-12 1.09971e-10)
(2.29825e-10 -1.18669e-11 1.25861e-10)
(2.6157e-10 -2.18699e-11 1.438e-10)
(-1.4396e-10 2.32686e-11 3.4071e-10)
(-1.80858e-10 4.52226e-11 4.70871e-10)
(-1.92307e-10 4.77621e-11 5.01474e-10)
(1.90193e-10 -3.70599e-11 8.28094e-11)
(2.86916e-10 4.50606e-11 1.74008e-10)
(8.46158e-11 -1.20169e-11 5.72443e-11)
(-1.16072e-10 6.47276e-11 4.62221e-10)
(6.40193e-11 -7.87099e-12 4.57338e-11)
(-1.80311e-10 6.06645e-11 5.14932e-10)
(6.88059e-11 -8.05166e-12 5.43109e-11)
(2.70599e-10 -3.96992e-12 2.31133e-10)
(3.02633e-10 -3.6402e-11 2.13464e-10)
(1.83897e-10 9.87043e-12 1.03592e-10)
(2.02278e-10 6.64315e-12 1.09351e-10)
(2.45417e-10 -1.18188e-11 1.23898e-10)
(2.65881e-10 -2.42802e-11 1.35993e-10)
(-1.32662e-10 1.80608e-11 2.98012e-10)
(-1.81057e-10 4.92749e-11 4.75198e-10)
(1.98609e-10 -4.23153e-11 8.24524e-11)
(2.72255e-10 4.71948e-11 1.59595e-10)
(-8.11462e-11 -3.43364e-11 2.36447e-10)
(1.32471e-10 -2.67744e-11 7.20062e-11)
(-1.51947e-10 -3.31052e-11 2.59608e-10)
(8.77612e-11 -1.36181e-11 5.82324e-11)
(6.93525e-11 -9.38931e-12 4.94029e-11)
(6.42239e-11 -9.86981e-12 4.79522e-11)
(-1.4116e-10 -3.95402e-11 2.33595e-10)
(-1.34487e-10 -2.21693e-11 2.18341e-10)
(1.1637e-10 -2.39055e-12 8.59252e-11)
(2.79656e-10 -3.66564e-11 1.99449e-10)
(2.00043e-10 1.29197e-11 1.08148e-10)
(2.12989e-10 1.08316e-11 1.0757e-10)
(2.53121e-10 -1.32204e-11 1.18797e-10)
(2.7498e-10 -2.3611e-11 1.36107e-10)
(-1.26093e-10 2.12296e-11 2.94068e-10)
(2.40123e-10 5.10199e-11 1.34165e-10)
(-9.46059e-11 -3.24816e-11 2.10868e-10)
(-8.1493e-11 -3.13455e-11 2.11472e-10)
(-7.43409e-11 -2.79496e-11 2.07543e-10)
(1.34987e-10 -2.98287e-11 7.07405e-11)
(-1.53829e-10 -2.68204e-11 2.44997e-10)
(-5.61048e-11 2.86786e-11 3.08672e-10)
(9.46856e-11 -1.77375e-11 6.1612e-11)
(1.75371e-10 5.07362e-11 1.63516e-10)
(-1.52376e-10 -3.95875e-11 2.60496e-10)
(-1.43449e-10 -4.4322e-11 2.42972e-10)
(-1.26709e-10 1.16991e-10 4.71813e-10)
(1.40812e-10 3.81836e-12 1.56381e-10)
(-1.8362e-10 6.92196e-11 4.69821e-10)
(1.25602e-10 1.50797e-12 9.10642e-11)
(2.22686e-10 -3.26673e-11 1.70451e-10)
(2.04121e-10 1.63841e-11 1.04072e-10)
(2.256e-10 1.28945e-11 1.06601e-10)
(2.65699e-10 -1.31359e-11 1.16957e-10)
(2.79868e-10 -2.54656e-11 1.33354e-10)
(-1.17951e-10 2.05294e-11 2.68431e-10)
(2.64821e-10 -1.42754e-11 9.15913e-11)
(2.50726e-10 2.58777e-12 9.85517e-11)
(2.06135e-10 4.94911e-11 1.273e-10)
(-9.69461e-11 -2.57165e-11 1.83898e-10)
(-7.54726e-11 -2.78519e-11 1.81109e-10)
(-7.40689e-11 -2.56057e-11 1.78802e-10)
(-6.82168e-11 -2.25979e-11 1.7785e-10)
(1.38366e-10 -3.39604e-11 6.97641e-11)
(-1.54227e-10 -1.86967e-11 2.29846e-10)
(1.95097e-10 4.78017e-11 2.01974e-10)
(-5.57576e-11 9.94507e-11 3.73732e-10)
(-1.28964e-10 -3.34872e-11 2.08881e-10)
(-1.64217e-10 1.10688e-10 4.78427e-10)
(9.39396e-11 -9.9045e-12 7.75811e-11)
(1.78911e-10 3.05568e-12 2.13219e-10)
(-1.26849e-10 -2.51129e-11 2.00505e-10)
(1.30395e-10 6.65071e-13 9.40407e-11)
(1.89628e-10 -2.26503e-11 1.87609e-10)
(-1.82796e-10 5.77781e-11 4.559e-10)
(2.20393e-10 2.21295e-11 1.07775e-10)
(2.36463e-10 1.75217e-11 1.05459e-10)
(2.74544e-10 -1.14486e-11 1.18049e-10)
(2.77424e-10 -2.34818e-11 1.36835e-10)
(-1.43337e-10 4.04911e-11 4.22547e-10)
(2.66453e-10 -1.67274e-11 9.26235e-11)
(2.45874e-10 1.40787e-12 9.69758e-11)
(1.98139e-10 4.06767e-11 1.45214e-10)
(-1.09619e-10 -1.62516e-11 1.61551e-10)
(-7.78131e-11 -2.2741e-11 1.55476e-10)
(-6.21507e-11 -1.72601e-11 1.51666e-10)
(1.4715e-10 -3.80659e-11 7.51436e-11)
(1.99443e-10 3.83155e-11 2.2987e-10)
(8.14077e-11 -1.9573e-11 6.71559e-11)
(1.90611e-10 2.59178e-11 2.30382e-10)
(2.30779e-10 2.49157e-11 1.08966e-10)
(2.54111e-10 2.1757e-11 1.16821e-10)
(2.62786e-10 -1.93533e-11 1.54501e-10)
(-9.96258e-11 1.88554e-11 2.3012e-10)
(-1.33061e-10 3.62704e-11 4.25398e-10)
(2.67403e-10 -1.54489e-11 9.9971e-11)
(2.39687e-10 2.07732e-12 1.14816e-10)
(1.97499e-10 3.37322e-11 1.56932e-10)
(-1.15288e-10 -6.56213e-12 1.40937e-10)
(-5.31792e-11 -1.34887e-11 1.2993e-10)
(1.51599e-10 -4.32878e-11 7.51183e-11)
(1.96353e-10 4.2142e-11 1.86322e-10)
(-5.13119e-12 4.46428e-11 1.90081e-10)
(-1.53389e-10 -1.78094e-11 2.244e-10)
(9.08714e-11 -2.78658e-11 6.64301e-11)
(-1.47312e-10 -2.38915e-11 2.28927e-10)
(-5.2837e-11 2.28832e-10 4.13037e-10)
(1.64228e-10 1.57212e-11 1.07043e-10)
(2.51541e-10 2.92639e-11 1.28639e-10)
(2.77105e-10 2.34796e-11 1.46734e-10)
(2.43407e-10 -8.73271e-12 1.97905e-10)
(-1.27223e-10 3.01639e-11 4.30169e-10)
(2.63129e-10 -2.07088e-11 1.25839e-10)
(2.20045e-10 -6.8831e-12 1.24233e-10)
(1.94878e-10 7.42834e-12 1.3154e-10)
(1.82226e-10 3.1166e-11 1.51505e-10)
(-1.31469e-10 5.24949e-12 1.22801e-10)
(-2.84815e-11 -2.49554e-12 1.20792e-10)
(1.89489e-10 4.22715e-11 1.80802e-10)
(-1.53693e-10 5.47037e-12 1.73868e-10)
(8.71136e-11 1.48075e-10 2.28071e-10)
(-1.58495e-10 -2.19142e-11 2.36431e-10)
(-1.51646e-10 2.86746e-10 5.40929e-10)