# Residuals   
# Time        	p             	Ux            	Uy            	Uz            
0.005         	1.000000e+00	1.000000e+00	1.000000e+00	1.000000e+00
0.01          	1.887906e-01	4.741738e-01	4.768808e-01	4.623974e-01
0.015         	1.349223e-01	2.947430e-01	3.096386e-01	2.704854e-01
0.02          	8.492889e-02	1.449071e-01	1.555496e-01	1.278265e-01
0.025         	1.362424e-01	1.170788e-01	1.250400e-01	1.018597e-01
0.03          	9.758467e-02	6.133878e-02	6.901633e-02	5.428450e-02
0.035         	7.868053e-02	4.335424e-02	5.002315e-02	3.882264e-02
0.04          	5.889447e-02	3.643845e-02	4.111699e-02	3.286713e-02
0.045         	4.256388e-02	2.982623e-02	3.369275e-02	2.690947e-02
0.05          	3.666562e-02	2.305858e-02	2.665574e-02	2.111068e-02
0.055         	3.237266e-02	1.933319e-02	2.261508e-02	1.792446e-02
0.06          	2.851066e-02	1.712128e-02	2.005772e-02	1.586968e-02
0.065         	2.663320e-02	1.567009e-02	1.811776e-02	1.441266e-02
0.07          	2.497395e-02	1.406176e-02	1.635593e-02	1.298095e-02
0.075         	2.240709e-02	1.264199e-02	1.489967e-02	1.178077e-02
0.08          	2.041506e-02	1.165818e-02	1.382611e-02	1.093488e-02
0.085         	1.884535e-02	1.088327e-02	1.295553e-02	1.026108e-02
0.09          	1.751046e-02	1.021326e-02	1.221078e-02	9.682297e-03
0.095         	1.636731e-02	9.623698e-03	1.155258e-02	9.175172e-03
0.1           	1.537817e-02	9.105062e-03	1.097128e-02	8.729085e-03
0.105         	1.451778e-02	8.649884e-03	1.045274e-02	8.338904e-03
0.11          	1.375982e-02	8.246929e-03	9.982638e-03	7.996466e-03
0.115         	1.309064e-02	7.889279e-03	9.546539e-03	7.691888e-03
0.12          	1.248958e-02	7.564233e-03	9.140633e-03	7.411000e-03
0.125         	1.194686e-02	7.260561e-03	8.757174e-03	7.146921e-03
0.13          	1.145634e-02	6.975524e-03	8.392863e-03	6.898454e-03
0.135         	1.100453e-02	6.712082e-03	8.051555e-03	6.662701e-03
0.14          	1.058268e-02	6.468187e-03	7.735127e-03	6.440050e-03
0.145         	1.018642e-02	6.243510e-03	7.435648e-03	6.227302e-03
0.15          	9.815593e-03	6.040115e-03	7.156732e-03	6.020300e-03
0.155         	9.468991e-03	5.850068e-03	6.892246e-03	5.817754e-03
0.16          	9.141466e-03	5.669407e-03	6.643963e-03	5.622768e-03
0.165         	8.835337e-03	5.496640e-03	6.409010e-03	5.433080e-03
0.17          	8.541445e-03	5.332398e-03	6.188899e-03	5.250517e-03
0.175         	8.264798e-03	5.173145e-03	5.980288e-03	5.074852e-03
0.18          	8.007548e-03	5.020434e-03	5.780697e-03	4.902855e-03
0.185         	7.762805e-03	4.870694e-03	5.586446e-03	4.733203e-03
0.19          	7.528799e-03	4.722204e-03	5.397539e-03	4.564327e-03
0.195         	7.296283e-03	4.576273e-03	5.215642e-03	4.399254e-03
0.2           	7.068424e-03	4.433093e-03	5.039282e-03	4.238484e-03
0.205         	6.846156e-03	4.295512e-03	4.867666e-03	4.080990e-03
0.21          	6.628190e-03	4.160922e-03	4.703420e-03	3.929248e-03
0.215         	6.414933e-03	4.030013e-03	4.547450e-03	3.783060e-03
0.22          	6.206031e-03	3.902225e-03	4.397334e-03	3.643141e-03
0.225         	6.000607e-03	3.778842e-03	4.252561e-03	3.510810e-03
0.23          	5.798686e-03	3.659137e-03	4.113212e-03	3.387512e-03
0.235         	5.601437e-03	3.543709e-03	3.979956e-03	3.272764e-03
0.24          	5.411442e-03	3.432838e-03	3.850622e-03	3.165757e-03
0.245         	5.228729e-03	3.325712e-03	3.726803e-03	3.063942e-03
0.25          	5.054789e-03	3.222259e-03	3.608668e-03	2.967804e-03
0.255         	4.887495e-03	3.121085e-03	3.495916e-03	2.877619e-03
0.26          	4.725823e-03	3.021955e-03	3.387563e-03	2.790262e-03
0.265         	4.570335e-03	2.924648e-03	3.283931e-03	2.704932e-03
0.27          	4.422673e-03	2.829166e-03	3.184009e-03	2.621795e-03
0.275         	4.281025e-03	2.735561e-03	3.087221e-03	2.539544e-03
0.28          	4.143594e-03	2.644023e-03	2.993440e-03	2.457161e-03
0.285         	4.010992e-03	2.554683e-03	2.901876e-03	2.375299e-03
0.29          	3.881686e-03	2.467526e-03	2.812444e-03	2.294461e-03
0.295         	3.755595e-03	2.382182e-03	2.725089e-03	2.214851e-03
0.3           	3.633291e-03	2.299006e-03	2.639132e-03	2.136613e-03
0.305         	3.514441e-03	2.218262e-03	2.555715e-03	2.059822e-03
0.31          	3.398156e-03	2.139919e-03	2.475324e-03	1.984207e-03
0.315         	3.284000e-03	2.063977e-03	2.397882e-03	1.910369e-03
0.32          	3.172245e-03	1.990389e-03	2.323492e-03	1.838840e-03
0.325         	3.063878e-03	1.919451e-03	2.252695e-03	1.769738e-03
0.33          	2.959375e-03	1.851174e-03	2.185300e-03	1.703060e-03
0.335         	2.858459e-03	1.785387e-03	2.121034e-03	1.639108e-03
0.34          	2.761264e-03	1.721951e-03	2.059939e-03	1.578047e-03
0.345         	2.667827e-03	1.661065e-03	2.001466e-03	1.519703e-03
0.35          	2.578321e-03	1.602873e-03	1.946256e-03	1.464074e-03
0.355         	2.492282e-03	1.547097e-03	1.893684e-03	1.411000e-03
0.36          	2.410315e-03	1.493401e-03	1.843776e-03	1.360491e-03
0.365         	2.332174e-03	1.441826e-03	1.796402e-03	1.312386e-03
0.37          	2.263636e-03	1.392389e-03	1.751126e-03	1.266619e-03
0.375         	2.200000e-03	1.350237e-03	1.699790e-03	1.230468e-03
0.38          	2.138627e-03	1.309021e-03	1.649805e-03	1.195656e-03
0.385         	2.079475e-03	1.267576e-03	1.604133e-03	1.160128e-03
0.39          	2.022322e-03	1.226621e-03	1.563375e-03	1.124307e-03
0.395         	1.967693e-03	1.186881e-03	1.526228e-03	1.089450e-03
0.4           	1.915785e-03	1.148605e-03	1.491323e-03	1.055996e-03
0.405         	1.866928e-03	1.111747e-03	1.457713e-03	1.024311e-03
0.41          	1.821032e-03	1.076357e-03	1.424681e-03	9.944082e-04
0.415         	1.777908e-03	1.042276e-03	1.392031e-03	9.658132e-04
0.42          	1.736623e-03	1.009204e-03	1.359581e-03	9.381923e-04
0.425         	1.696812e-03	9.770232e-04	1.327230e-03	9.111269e-04
0.43          	1.658275e-03	9.455711e-04	1.294951e-03	8.843007e-04
0.435         	1.620674e-03	9.148144e-04	1.262386e-03	8.575841e-04
0.44          	1.583402e-03	8.846982e-04	1.229313e-03	8.310973e-04
0.445         	1.546491e-03	8.551984e-04	1.195684e-03	8.047445e-04
0.45          	1.509554e-03	8.263709e-04	1.161395e-03	7.785391e-04
0.455         	1.472604e-03	7.982700e-04	1.126339e-03	7.525001e-04
0.46          	1.435540e-03	7.708685e-04	1.090439e-03	7.266411e-04
0.465         	1.398283e-03	7.442367e-04	1.053808e-03	7.011406e-04
0.47          	1.360824e-03	7.183323e-04	1.016542e-03	6.760364e-04
0.475         	1.322998e-03	6.930327e-04	9.785581e-04	6.513001e-04
0.48          	1.281195e-03	6.682359e-04	9.399517e-04	6.269509e-04
0.485         	1.238250e-03	6.409003e-04	9.045796e-04	5.988222e-04
0.49          	1.195917e-03	6.148546e-04	8.689494e-04	5.717836e-04
0.495         	1.154182e-03	5.902081e-04	8.319050e-04	5.466664e-04
0.5           	1.113006e-03	5.667754e-04	7.936185e-04	5.233152e-04
0.505         	1.072170e-03	5.442538e-04	7.548147e-04	5.011916e-04
0.51          	1.031578e-03	5.224652e-04	7.161835e-04	4.797884e-04
0.515         	9.912063e-04	5.013035e-04	6.782152e-04	4.588298e-04
0.52          	9.512298e-04	4.807960e-04	6.411836e-04	4.381798e-04
0.525         	9.116099e-04	4.607072e-04	6.051840e-04	4.178016e-04
0.53          	8.724231e-04	4.410513e-04	5.702429e-04	3.976872e-04
0.535         	8.337890e-04	4.217993e-04	5.363687e-04	3.778670e-04
0.54          	7.956871e-04	4.028713e-04	5.035577e-04	3.584087e-04
0.545         	7.581617e-04	3.842409e-04	4.718395e-04	3.393241e-04
0.55          	7.213387e-04	3.658528e-04	4.412854e-04	3.206879e-04
0.555         	6.852391e-04	3.477402e-04	4.119373e-04	3.025588e-04
0.56          	6.499101e-04	3.299135e-04	3.838606e-04	2.849309e-04
0.565         	6.154234e-04	3.124227e-04	3.571156e-04	2.679048e-04
0.57          	5.818720e-04	2.952539e-04	3.316806e-04	2.514403e-04
0.575         	5.493450e-04	2.784920e-04	3.076019e-04	2.355816e-04
0.58          	5.178768e-04	2.622000e-04	2.849100e-04	2.204046e-04
0.585         	4.875115e-04	2.464020e-04	2.636075e-04	2.059351e-04
0.59          	4.582476e-04	2.311135e-04	2.436480e-04	1.921766e-04
0.595         	4.301017e-04	2.163648e-04	2.250170e-04	1.791214e-04
0.6           	4.031294e-04	2.021706e-04	2.076655e-04	1.667575e-04
0.605         	3.773384e-04	1.885659e-04	1.915135e-04	1.550789e-04
0.61          	3.527194e-04	1.755849e-04	1.765054e-04	1.440642e-04
0.615         	3.292519e-04	1.632362e-04	1.626037e-04	1.336921e-04
0.62          	3.069306e-04	1.515301e-04	1.497474e-04	1.239425e-04
0.625         	2.857713e-04	1.404770e-04	1.378626e-04	1.148014e-04
0.63          	2.657588e-04	1.300754e-04	1.268792e-04	1.062558e-04
0.635         	2.468667e-04	1.203139e-04	1.167624e-04	9.827533e-05
0.64          	2.290736e-04	1.111700e-04	1.074354e-04	9.082783e-05
0.645         	2.122925e-04	1.025539e-04	9.881847e-05	8.382635e-05
0.65          	1.965583e-04	9.452233e-05	9.089091e-05	7.730168e-05
0.655         	1.818290e-04	8.704158e-05	8.360592e-05	7.123034e-05
0.66          	1.680620e-04	8.009048e-05	7.690159e-05	6.558981e-05
0.665         	1.552112e-04	7.364500e-05	7.073552e-05	6.035776e-05
0.67          	1.432236e-04	6.767815e-05	6.507121e-05	5.551552e-05
0.675         	1.320606e-04	6.217004e-05	5.987695e-05	5.104511e-05
0.68          	1.216879e-04	5.709357e-05	5.512364e-05	4.692691e-05
0.685         	1.120666e-04	5.242773e-05	5.076920e-05	4.314591e-05
0.69          	1.031496e-04	4.814674e-05	4.679059e-05	3.968351e-05
0.695         	9.489826e-05	4.422504e-05	4.315236e-05	3.651505e-05
0.7           	8.726729e-05	4.063877e-05	3.982402e-05	3.361326e-05
0.705         	8.020556e-05	3.736160e-05	3.673677e-05	3.094155e-05
0.71          	7.370473e-05	3.437280e-05	3.391503e-05	2.849867e-05
0.715         	6.772077e-05	3.163933e-05	3.132847e-05	2.626002e-05
0.72          	6.221746e-05	2.913602e-05	2.895196e-05	2.420587e-05
0.725         	5.716084e-05	2.684311e-05	2.676650e-05	2.231974e-05
0.73          	5.251866e-05	2.474327e-05	2.475688e-05	2.058586e-05
0.735         	4.826163e-05	2.281902e-05	2.290437e-05	1.898960e-05
0.74          	4.435583e-05	2.105570e-05	2.119443e-05	1.751957e-05
0.745         	4.078437e-05	1.947561e-05	1.958809e-05	1.616715e-05
0.75          	3.750324e-05	1.803936e-05	1.809035e-05	1.491406e-05
0.755         	3.449872e-05	1.674406e-05	1.671113e-05	1.376395e-05
0.76          	3.174360e-05	1.556619e-05	1.546016e-05	1.271659e-05
0.765         	2.921076e-05	1.446995e-05	1.432873e-05	1.175874e-05
0.77          	2.688135e-05	1.343834e-05	1.330430e-05	1.088069e-05
0.775         	2.474713e-05	1.247396e-05	1.237605e-05	1.008139e-05
0.78          	2.279681e-05	1.157746e-05	1.152907e-05	9.353133e-06
0.785         	2.101457e-05	1.074535e-05	1.074756e-05	8.684710e-06
0.79          	1.938384e-05	9.973843e-06	1.002258e-05	8.067486e-06
0.795         	1.789161e-05	9.260040e-06	9.348056e-06	7.495257e-06
0.8           	1.652325e-05	8.590034e-06	8.720828e-06	6.959581e-06
0.805         	1.527433e-05	7.971619e-06	8.140553e-06	6.463902e-06
0.81          	1.413019e-05	7.397271e-06	7.603386e-06	6.004031e-06
0.815         	1.308036e-05	6.863469e-06	7.107852e-06	5.578290e-06
0.82          	1.211609e-05	6.368108e-06	6.653129e-06	5.186890e-06
0.825         	1.123005e-05	5.910177e-06	6.238121e-06	4.830506e-06
0.83          	1.041596e-05	5.488208e-06	5.860210e-06	4.508264e-06
0.835         	9.667776e-06	5.100659e-06	5.515072e-06	4.217158e-06
0.84          	8.980204e-06	4.745152e-06	5.197373e-06	3.953129e-06
0.845         	8.349459e-06	4.421075e-06	4.902078e-06	3.712125e-06
0.85          	7.768434e-06	4.127108e-06	4.617287e-06	3.486440e-06
0.855         	7.234384e-06	3.859783e-06	4.342491e-06	3.272946e-06
0.86          	6.743524e-06	3.618481e-06	4.074459e-06	3.069060e-06
0.865         	6.291395e-06	3.401754e-06	3.807043e-06	2.870493e-06
0.87          	5.875066e-06	3.204853e-06	3.545202e-06	2.676828e-06
0.875         	5.486936e-06	3.016404e-06	3.303596e-06	2.493288e-06
0.88          	5.122827e-06	2.829623e-06	3.086573e-06	2.323194e-06
0.885         	4.785069e-06	2.651543e-06	2.892572e-06	2.171346e-06
0.89          	4.473998e-06	2.487830e-06	2.718163e-06	2.038469e-06
0.895         	4.186709e-06	2.337908e-06	2.558793e-06	1.920003e-06
0.9           	3.920073e-06	2.198644e-06	2.410460e-06	1.810324e-06
0.905         	3.671623e-06	2.067109e-06	2.270259e-06	1.705582e-06
0.91          	3.440790e-06	1.942690e-06	2.137781e-06	1.605160e-06
0.915         	3.226164e-06	1.824435e-06	2.012362e-06	1.508782e-06
0.92          	3.026908e-06	1.712058e-06	1.893908e-06	1.416821e-06
0.925         	2.841844e-06	1.605541e-06	1.782489e-06	1.329793e-06
0.93          	2.669413e-06	1.503934e-06	1.679489e-06	1.248332e-06
0.935         	2.508499e-06	1.409691e-06	1.584654e-06	1.173608e-06
0.94          	2.357428e-06	1.323050e-06	1.495592e-06	1.104775e-06
0.945         	2.215797e-06	1.242546e-06	1.412942e-06	1.041583e-06
0.95          	2.083250e-06	1.168157e-06	1.335506e-06	9.831923e-07
0.955         	1.959231e-06	1.099486e-06	1.262021e-06	9.284636e-07
0.96          	1.843142e-06	1.036052e-06	1.191379e-06	8.763061e-07
0.965         	1.734545e-06	9.773192e-07	1.122863e-06	8.260382e-07
0.97          	1.632879e-06	9.227786e-07	1.055724e-06	7.770623e-07
0.975         	1.537797e-06	8.719582e-07	9.906181e-07	7.296120e-07
0.98          	1.448515e-06	8.243513e-07	9.291815e-07	6.845563e-07
0.985         	1.364158e-06	7.789642e-07	8.724705e-07	6.425474e-07
0.99          	1.284441e-06	7.354091e-07	8.204656e-07	6.039184e-07
0.995         	1.209388e-06	6.940343e-07	7.727516e-07	5.687269e-07
1             	1.138936e-06	6.551227e-07	7.288213e-07	5.366393e-07
1.005         	1.072692e-06	6.184685e-07	6.877552e-07	5.067582e-07
1.01          	1.010324e-06	5.835783e-07	6.489184e-07	4.783013e-07
1.015         	9.518182e-07	5.504293e-07	6.120997e-07	4.511026e-07
