# Wall shear stress
# Time        	patch         	min           	max           
2.425000e+00	wall	(-4.242882e-04 -7.613024e-04 -1.298245e-03)	(9.324730e-04 3.324808e-04 4.589768e-04)
