# Wall shear stress
# Time        	patch         	min           	max           
7.500000e-01	wall	(-3.555100e-04 -7.613024e-04 -1.298245e-03)	(9.324730e-04 3.069272e-04 4.188157e-04)
