# Wall shear stress
# Time        	patch         	min           	max           
1.750000e+00	wall	(-4.242664e-04 -7.613024e-04 -1.298245e-03)	(9.324730e-04 3.301695e-04 4.575532e-04)
