# Wall shear stress
# Time        	patch         	min           	max           
2.500000e-01	wall	(-2.069148e-04 -7.612958e-04 -1.298244e-03)	(9.324703e-04 2.380517e-04 3.071572e-04)
