# Wall shear stress
# Time        	patch         	min           	max           
1.500000e+00	wall	(-4.222525e-04 -7.613024e-04 -1.298245e-03)	(9.324730e-04 3.243213e-04 4.520090e-04)
