# Wall shear stress
# Time        	patch         	min           	max           
1.250000e+00	wall	(-4.113071e-04 -7.613024e-04 -1.298245e-03)	(9.324730e-04 3.155031e-04 4.399942e-04)
