# Wall shear stress
# Time        	patch         	min           	max           
0.000000e+00	wall	(-8.222998e-04 -6.511914e-04 -6.030254e-04)	(8.464378e-04 8.568131e-04 4.996989e-04)
