# Wall shear stress
# Time        	patch         	min           	max           
5.000000e-01	wall	(-2.786667e-04 -7.613019e-04 -1.298245e-03)	(9.324734e-04 2.901330e-04 3.907860e-04)
