# Wall shear stress
# Time        	patch         	min           	max           
2.000000e+00	wall	(-4.243354e-04 -7.613024e-04 -1.298245e-03)	(9.324730e-04 3.319824e-04 4.587141e-04)
