# Wall shear stress
# Time        	patch         	min           	max           
2.250000e+00	wall	(-4.242996e-04 -7.613024e-04 -1.298245e-03)	(9.324730e-04 3.323985e-04 4.589323e-04)
