# Wall shear stress
# Time        	patch         	min           	max           
1.000000e+00	wall	(-3.948944e-04 -7.613024e-04 -1.298245e-03)	(9.324730e-04 3.133953e-04 4.369589e-04)
