/*--------------------------------*- C++ -*----------------------------------*\
  =========                 |
  \\      /  F ield         | OpenFOAM: The Open Source CFD Toolbox
   \\    /   O peration     | Website:  https://openfoam.org
    \\  /    A nd           | Version:  7
     \\/     M anipulation  |
\*---------------------------------------------------------------------------*/
FoamFile
{
    version     2.0;
    format      ascii;
    class       volScalarField;
    location    "1.5";
    object      p;
}
// * * * * * * * * * * * * * * * * * * * * * * * * * * * * * * * * * * * * * //

dimensions      [0 2 -2 0 0 0 0];

internalField   nonuniform List<scalar> 
382612
(
0.00233579
0.00229767
0.002208
0.00220848
0.00214677
0.00259511
0.00232126
0.00207804
0.00200876
0.00184557
0.00192906
0.00192002
0.00185066
0.00218046
0.00209972
0.00235766
0.00231974
0.00241097
0.00224537
0.00231439
0.00236641
0.00243144
0.00249732
0.0026254
0.00258803
0.00254367
0.00250552
0.0032308
0.00330517
0.00336563
0.00341532
0.00321958
0.00319878
0.003175
0.00314342
0.00300675
0.00246286
0.00238977
0.00252936
0.00260359
0.00267357
0.00273894
0.0027268
0.00269347
0.00265217
0.00260627
0.00253124
0.00255326
0.00258945
0.00262074
0.00274355
0.00268719
0.0026282
0.00256847
0.0024441
0.00246791
0.00240828
0.00229886
0.00245156
0.00246504
0.00252171
0.0026345
0.00266168
0.00289702
0.00247468
0.00236461
0.00286622
0.00301712
0.00310674
0.0033502
0.00338764
0.00339926
0.00340726
0.00377265
0.00375739
0.00373672
0.00369854
0.00353741
0.0031615
0.00333789
0.00340809
0.00345332
0.00348469
0.00389799
0.00390108
0.00389966
0.00384822
0.00353929
0.0026919
0.00294887
0.00301488
0.00304707
0.0030682
0.00325228
0.00326244
0.00327225
0.00323931
0.0030165
0.00249511
0.00237438
0.00248771
0.00253796
0.00259265
0.00265463
0.00254942
0.00252808
0.00250552
0.00249869
0.00235537
0.00239512
0.00243574
0.00246856
0.00271211
0.00264664
0.00258175
0.00252094
0.00238047
0.00222559
0.00215975
0.00220946
0.0022493
0.00227908
0.00243622
0.0023659
0.00229956
0.0022352
0.0020876
0.00196256
0.00211363
0.0023888
0.00244354
0.00247035
0.00248497
0.00268529
0.00268727
0.00268789
0.00267492
0.00272146
0.0026905
0.00265379
0.00264326
0.00262944
0.00261769
0.00212444
0.00210417
0.00207933
0.00204941
0.00220878
0.00226061
0.00230173
0.00233686
0.00236171
0.00232041
0.00228182
0.00225159
0.00226869
0.00224903
0.00217358
0.00217404
0.00219291
0.00221183
0.00207955
0.00214104
0.00221798
0.00204747
0.00204828
0.00204821
0.00240432
0.00255915
0.00181936
0.00194891
0.00231857
0.00201614
0.00210262
0.00212699
0.00213028
0.00213936
0.0021507
0.00215625
0.00277042
0.00278347
0.00280278
0.00280966
0.00270426
0.00198587
0.00200646
0.00201496
0.00202661
0.00203657
0.00258208
0.00260357
0.00263488
0.00265747
0.00261443
0.00223458
0.00234124
0.00240802
0.00242111
0.0024263
0.00243373
0.00217231
0.00217126
0.00217331
0.00218629
0.00165686
0.00167194
0.00169068
0.00170104
0.0022105
0.00219387
0.00217348
0.00215516
0.00216493
0.00165397
0.00160185
0.00210587
0.00199655
0.00160548
0.00187386
0.00207508
0.00184018
0.00204883
0.00198138
0.00182971
0.00153618
0.00183498
0.00184587
0.00159238
0.00149975
0.00179669
0.00179525
0.00147818
0.00177497
0.00191593
0.00185419
0.0016927
0.00179417
0.00191739
0.00199901
0.00204673
0.00230842
0.0021695
0.00229672
0.00245667
0.00223708
0.0020845
0.00217518
0.00220424
0.00224274
0.00228549
0.00261759
0.00260126
0.00257537
0.00251495
0.00295307
0.00294377
0.00293183
0.00291803
0.00357434
0.00355694
0.00353787
0.00349176
0.00327568
0.00297427
0.00288947
0.00296387
0.00300331
0.00302138
0.00303792
0.00260575
0.0026013
0.00258557
0.00255877
0.00256884
0.00315886
0.00315955
0.0031849
0.00320646
0.003222
0.00321716
0.00319785
0.0031688
0.00314431
0.00314799
0.00351691
0.00352102
0.00352644
0.00354338
0.00355774
0.00380374
0.0038009
0.00379542
0.0037757
0.0036616
0.00355557
0.00373014
0.00377828
0.00380241
0.00381702
0.00437347
0.00437505
0.00437598
0.00433447
0.00403402
0.00316254
0.00326214
0.00329137
0.00332052
0.00334549
0.00329087
0.00327633
0.00325562
0.00321023
0.00299987
0.00266979
0.00281833
0.00287516
0.00291464
0.00294099
0.00341133
0.00342861
0.00345261
0.00344332
0.00323325
0.00212154
0.00220548
0.00223145
0.00226381
0.00229245
0.00271879
0.00280175
0.00282721
0.00284407
0.00285587
0.00249174
0.00246545
0.002431
0.00239734
0.00229785
0.00293341
0.00304752
0.00304178
0.00301135
0.00298696
0.0020834
0.00206568
0.00204199
0.00202135
0.00196804
0.00268944
0.00269579
0.00266758
0.0026332
0.00260899
0.00190852
0.00190486
0.0019005
0.00190972
0.0019723
0.00196355
0.00195173
0.00195871
0.00197505
0.00198843
0.00239849
0.00242197
0.00245406
0.00248839
0.00253967
0.00195451
0.00185939
0.00184919
0.00185706
0.00186323
0.00236881
0.0023846
0.00240651
0.00242324
0.00239911
0.00210298
0.00215205
0.00218557
0.00219702
0.00220163
0.00220669
0.00205326
0.0020495
0.00204651
0.00205427
0.00176811
0.00177165
0.00178122
0.00178708
0.00208349
0.00207663
0.0020677
0.00205747
0.00204677
0.00177884
0.00203691
0.00200496
0.00200444
0.00201012
0.0020129
0.00192425
0.00202628
0.00224204
0.00219795
0.00217831
0.00216494
0.00215504
0.00199657
0.00199634
0.00199542
0.00199534
0.0021195
0.00212054
0.00212021
0.00212186
0.00212142
0.00211927
0.00211803
0.00211562
0.0020143
0.00201753
0.00202389
0.00202708
0.00222687
0.00223531
0.00224368
0.00224971
0.0022831
0.00204249
0.00211065
0.00211348
0.00208079
0.00178009
0.00193514
0.00197292
0.00181023
0.00178738
0.00199192
0.00196537
0.00165973
0.00221172
0.00220015
0.00210393
0.00205962
0.0019944
0.00210677
0.0018095
0.00180788
0.00197588
0.00218513
0.00230625
0.00224009
0.00222529
0.00222159
0.00222052
0.00214609
0.00214143
0.0021341
0.00213317
0.00217628
0.0024512
0.00243129
0.00241629
0.00241009
0.00240969
0.00236268
0.00236576
0.00237248
0.00238799
0.00244267
0.00220725
0.00213692
0.00213552
0.00213531
0.00213322
0.00213284
0.00217625
0.00217032
0.00216379
0.00216532
0.00194933
0.00195409
0.00196006
0.00196306
0.00203776
0.00203774
0.00203789
0.00203822
0.00204803
0.00194594
0.00215952
0.00213462
0.00213383
0.00213223
0.00212879
0.00212129
0.00220348
0.00221595
0.00217223
0.00217327
0.00218078
0.0021855
0.00237289
0.00237091
0.00236714
0.00236555
0.00239197
0.00250554
0.00250758
0.00250135
0.00249668
0.00249458
0.00235432
0.00235362
0.00235377
0.002363
0.00241822
0.0023803
0.00235173
0.00234825
0.00234471
0.00234172
0.00213411
0.00212931
0.00212363
0.00212475
0.00212819
0.00212395
0.00211794
0.00211401
0.00210914
0.00211297
0.00211757
0.00212105
0.00213587
0.00213306
0.00213479
0.00213525
0.00236259
0.00235479
0.0023437
0.00233487
0.00236236
0.00217331
0.00213138
0.00215082
0.00222548
0.00203551
0.00204761
0.00209579
0.00207066
0.00184711
0.00198559
0.00201469
0.00184895
0.00230667
0.00220461
0.0021541
0.00223278
0.00215076
0.00213071
0.00223066
0.00227857
0.0024143
0.00237367
0.0023677
0.00231831
0.0023124
0.00231715
0.00232146
0.0024514
0.00244693
0.00244084
0.00243744
0.00245473
0.00251916
0.0025133
0.00251072
0.00250942
0.00250824
0.0024097
0.00241089
0.00241105
0.00241131
0.00243875
0.00251356
0.00249567
0.0024946
0.00249324
0.00249178
0.00245984
0.00245101
0.00243873
0.00242614
0.00243209
0.00227075
0.00223943
0.00223218
0.00222628
0.00222038
0.0023603
0.00235067
0.00233867
0.00232614
0.00233044
0.00219991
0.00212652
0.00212682
0.00213214
0.00213294
0.00213246
0.00214915
0.00214513
0.00214032
0.00214584
0.00220017
0.00220083
0.00220443
0.00220761
0.00213357
0.00213359
0.0021337
0.00213208
0.00213124
0.00222042
0.00223062
0.00215366
0.00217501
0.00222074
0.0020411
0.00207242
0.0021738
0.00220528
0.00223788
0.00214559
0.00205393
0.0020701
0.0018842
0.00193342
0.00206254
0.00217993
0.0021214
0.00206849
0.00210488
0.00216412
0.00233675
0.00243666
0.00250139
0.00248348
0.00242919
0.00241996
0.00242257
0.00242623
0.00242895
0.00254753
0.00255059
0.00255592
0.00256351
0.00256905
0.00264045
0.00263869
0.00263409
0.00263016
0.00262754
0.00249856
0.00249306
0.00248613
0.00248336
0.00251134
0.00258241
0.00259656
0.00260154
0.00260206
0.0026015
0.00266367
0.0026632
0.00266334
0.00266263
0.00265203
0.00254876
0.00252379
0.00252672
0.00253494
0.00254097
0.00263427
0.00263497
0.00263463
0.00262858
0.00261179
0.00249756
0.00250083
0.00250622
0.0025103
0.0025126
0.00230165
0.00229799
0.00229275
0.00228541
0.00227236
0.00217289
0.00213707
0.00214995
0.00215495
0.00215435
0.00215173
0.00218297
0.00217942
0.0021745
0.00217083
0.00222855
0.00223191
0.00223861
0.00224723
0.00216891
0.00216539
0.00215866
0.00214719
0.00212735
0.00221892
0.00234907
0.00237281
0.00238263
0.00239196
0.00239977
0.00241589
0.00240687
0.00239896
0.00239293
0.00236969
0.00221642
0.00214116
0.00216266
0.00217066
0.00217736
0.00218549
0.00226631
0.0022519
0.00223584
0.00222609
0.00223883
0.00225508
0.00226771
0.00227634
0.00222485
0.00221166
0.0021984
0.0021785
0.00211124
0.00220314
0.00235211
0.00220555
0.00205966
0.00207568
0.00246564
0.00227077
0.00210172
0.00217391
0.00231116
0.00217644
0.00207699
0.00210933
0.00213464
0.0020452
0.00205385
0.0021639
0.00236788
0.0021548
0.00197947
0.00202796
0.0018504
0.00190001
0.00184753
0.0017549
0.00163464
0.00180745
0.00182278
0.00162673
0.00172729
0.00187154
0.00190923
0.00179332
0.00188188
0.0019638
0.00195148
0.00182855
0.00199483
0.00212581
0.00228755
0.00234543
0.00244139
0.0023746
0.0023575
0.00235186
0.00234964
0.00238588
0.00238888
0.00239587
0.0024099
0.00242492
0.00249891
0.00248979
0.0024792
0.00247256
0.00246861
0.00235247
0.00235121
0.00234931
0.00234757
0.00235224
0.00243521
0.00240925
0.00239802
0.0023928
0.00239044
0.00247673
0.00247874
0.00248197
0.00248768
0.00249883
0.00257352
0.00256734
0.00256582
0.00256649
0.00256639
0.00252528
0.00252226
0.0025162
0.00251028
0.00251516
0.00260873
0.00261665
0.00262684
0.00263405
0.00263854
0.0027162
0.00271649
0.00271702
0.00271585
0.00270479
0.00269845
0.0027085
0.00271141
0.00271182
0.00271146
0.00281005
0.00280867
0.00280576
0.00279856
0.00277972
0.00277933
0.00281552
0.00282732
0.00283099
0.00283223
0.00260643
0.00259766
0.00258629
0.00257943
0.00258694
0.00259221
0.00262898
0.00264205
0.00264568
0.00264666
0.00249671
0.00249769
0.00249584
0.00248856
0.00246375
0.00262162
0.00268498
0.00270211
0.00270166
0.00269718
0.00230582
0.00229203
0.00227684
0.00226693
0.0022533
0.00227977
0.00229891
0.00231602
0.00231062
0.00229243
0.00227309
0.0022501
0.00219062
0.00231039
0.00234135
0.00235429
0.00237109
0.0023857
0.00255132
0.00254921
0.00254262
0.00253045
0.0024962
0.00255433
0.00265434
0.00267706
0.0026885
0.00269946
0.00242617
0.00240327
0.00237892
0.00236234
0.00223461
0.002258
0.00228254
0.00230754
0.00235033
0.00232191
0.00229154
0.0022535
0.00233929
0.00236836
0.00239346
0.00241448
0.0028217
0.00282257
0.00281948
0.00279161
0.00267819
0.00226193
0.00215826
0.00226093
0.00240153
0.00254545
0.0023109
0.00215361
0.0023009
0.00223439
0.00217464
0.00215825
0.00226619
0.0022367
0.0021047
0.00225656
0.00255077
0.00227604
0.00210414
0.0020429
0.00212697
0.00181769
0.00185167
0.00180144
0.00168397
0.00159223
0.00177962
0.00178088
0.00164982
0.00183668
0.00187367
0.00196027
0.00201147
0.00217594
0.00216956
0.00225579
0.00233095
0.00240043
0.0024325
0.00241755
0.00236015
0.00226389
0.00210307
0.0019914
0.00201674
0.00203132
0.00203828
0.00204102
0.00234873
0.00234644
0.00234668
0.00235585
0.00236843
0.00231454
0.00231234
0.00232413
0.00233412
0.00234041
0.00252473
0.00252389
0.00252411
0.00252495
0.00251334
0.00253971
0.00259714
0.00260211
0.00260003
0.00259899
0.00252608
0.00252148
0.00251408
0.00250233
0.00246529
0.0026459
0.00266701
0.00267019
0.00267106
0.00267191
0.00279177
0.00279144
0.00279196
0.00278782
0.00274059
0.00266203
0.00269981
0.00271365
0.00272321
0.00272899
0.00282856
0.00282605
0.00282244
0.00281563
0.00278772
0.0027278
0.00274796
0.00276172
0.00277207
0.0027783
0.00296152
0.00295877
0.0029571
0.00295315
0.00291558
0.00293411
0.00294931
0.00295343
0.00295769
0.00296126
0.00286241
0.00285275
0.00283922
0.00282543
0.00280145
0.00283674
0.0028888
0.00290198
0.00290336
0.00290117
0.00257783
0.00256403
0.00254771
0.00254059
0.00256753
0.00271612
0.00274039
0.00274794
0.00275593
0.00276256
0.00287184
0.00287163
0.00286814
0.00285066
0.00279485
0.00302599
0.00305009
0.00305931
0.00307387
0.00308621
0.00295376
0.00294537
0.00293421
0.00292227
0.00288781
0.00261736
0.00269034
0.00272092
0.00274404
0.00276021
0.00275813
0.002745
0.00273023
0.00270708
0.00260981
0.00238718
0.00222847
0.00227253
0.00229762
0.00232308
0.00235137
0.00249415
0.00247068
0.00244511
0.00242911
0.00245992
0.00248198
0.00250886
0.00253102
0.00244945
0.00241739
0.00238515
0.00234941
0.00228327
0.00242265
0.00239957
0.00227357
0.00217445
0.00230105
0.00238055
0.00220526
0.00219918
0.00234255
0.00212848
0.0020692
0.00219777
0.00236941
0.0023515
0.00216705
0.0021052
0.00226305
0.00243267
0.00221929
0.0022547
0.00244814
0.00239297
0.00221359
0.00199207
0.00196765
0.0018757
0.0019532
0.00211867
0.00216135
0.00249554
0.00266819
0.00266917
0.00266332
0.00260095
0.00251838
0.00240841
0.00226893
0.00209831
0.00192648
0.00171461
0.00154009
0.00146743
0.00152046
0.00153064
0.00152988
0.00152742
0.00184029
0.00183812
0.00183861
0.00184406
0.00182733
0.00197462
0.00201583
0.00203523
0.00204372
0.00204669
0.00232557
0.00232172
0.00231957
0.00232093
0.00230022
0.00243031
0.00243842
0.0024386
0.00244059
0.00244251
0.00246043
0.00245462
0.00244759
0.00244136
0.0024151
0.00262409
0.00263896
0.00264258
0.00264752
0.00265185
0.0026885
0.00268111
0.002672
0.00266239
0.00263525
0.00282708
0.00285162
0.00286166
0.00287021
0.00287642
0.00294737
0.00294073
0.0029295
0.00291204
0.00287205
0.00293842
0.00297008
0.00298369
0.00299224
0.00299727
0.00309064
0.00308933
0.00308561
0.00307067
0.00300558
0.00310955
0.00314835
0.00316433
0.00317279
0.0031785
0.00315003
0.00314461
0.00313521
0.00311631
0.00307439
0.00285536
0.00289314
0.00291437
0.00293353
0.0029478
0.00307539
0.00306956
0.00306295
0.00305589
0.00303755
0.0029215
0.00300238
0.00305236
0.00302157
0.00315456
0.00320789
0.00321678
0.00321954
0.00322298
0.00310025
0.0030913
0.00307721
0.00305915
0.0030312
0.00326623
0.00330417
0.00331095
0.00331803
0.00332512
0.00333006
0.00332426
0.00331714
0.0033056
0.00325459
0.00320254
0.00325816
0.00327281
0.0032842
0.00329317
0.00304106
0.00302514
0.00300446
0.00298384
0.00293526
0.00287465
0.00295661
0.00298213
0.00299411
0.00300109
0.00282027
0.00281379
0.00280312
0.00277514
0.00268918
0.00232343
0.00220926
0.00228575
0.00232658
0.0023612
0.00239604
0.00246222
0.0024415
0.00241371
0.00238608
0.0024103
0.0024272
0.002451
0.00246995
0.00246109
0.00244146
0.00241877
0.00238742
0.002314
0.00239233
0.00238075
0.00228583
0.00233692
0.00243111
0.0025489
0.00280988
0.00282959
0.00278883
0.00283302
0.0028539
0.00286678
0.00287575
0.0027813
0.00277174
0.00275902
0.00274829
0.00273226
0.00258035
0.00264137
0.00265753
0.00265984
0.00265989
0.00252425
0.00251475
0.00250435
0.00249312
0.00247446
0.00231931
0.00215659
0.00216259
0.00217356
0.00218505
0.00219828
0.00234722
0.00233909
0.00232931
0.0023224
0.00237412
0.00238281
0.00239613
0.0024075
0.00233404
0.00232196
0.00230894
0.00228959
0.00224357
0.00234979
0.00227217
0.0022033
0.00215184
0.00226377
0.00230477
0.00216084
0.00211344
0.00225212
0.00232588
0.00213404
0.00217833
0.00239395
0.0020184
0.00204314
0.00203898
0.00208077
0.00234104
0.00221941
0.0021984
0.00235724
0.00236662
0.00217078
0.00209709
0.00218505
0.00196828
0.00197887
0.00174772
0.00138115
0.00144392
0.00174341
0.00180752
0.00152195
0.00193293
0.00191086
0.00173285
0.00152584
0.00134462
0.00170829
0.0016765
0.00123714
0.00110677
0.0016654
0.00166808
0.00123328
0.00121962
0.00166086
0.00170329
0.00136888
0.00133985
0.00170085
0.00171099
0.00133839
0.00157364
0.00181834
0.00185044
0.0015364
0.00155808
0.00183702
0.00176745
0.00142616
0.0013779
0.00174737
0.00184942
0.0016649
0.0016041
0.00184317
0.00191922
0.00168002
0.0016215
0.00178469
0.00177559
0.001873
0.00180157
0.0017928
0.0017946
0.00179417
0.00190646
0.00190438
0.00190119
0.00190675
0.00195698
0.00244953
0.00234355
0.00231251
0.00229391
0.00228194
0.00193428
0.00193042
0.00192686
0.00194221
0.00205252
0.00232983
0.0022979
0.00227245
0.00225516
0.00224502
0.00209747
0.00208432
0.00206894
0.00206597
0.00212598
0.00198341
0.00186623
0.00178124
0.00188958
0.00182327
0.00181354
0.00181447
0.00181356
0.00204961
0.00205109
0.00205111
0.00205359
0.00209844
0.00242519
0.00235361
0.00232784
0.0023171
0.00231199
0.00208531
0.00208153
0.00207774
0.00208882
0.00217203
0.0023939
0.00237796
0.00235935
0.00234727
0.00234021
0.00214611
0.00214101
0.00213568
0.00214634
0.00224518
0.00214816
0.00209674
0.00207089
0.00215092
0.00216862
0.00209965
0.00208641
0.00208684
0.00208891
0.00229865
0.00230447
0.00231538
0.00233451
0.00235285
0.00238176
0.00235606
0.00233992
0.00233161
0.0023274
0.00221243
0.0022101
0.0022076
0.0022138
0.00225803
0.00230818
0.00224876
0.00224211
0.00224457
0.00224671
0.00226094
0.00239704
0.00235577
0.00236115
0.00225312
0.00225946
0.00221112
0.00220538
0.00220943
0.00221327
0.0024064
0.00240884
0.00241674
0.00243297
0.00244995
0.00247313
0.00245681
0.00244689
0.00244369
0.0024432
0.00229628
0.00229248
0.00228629
0.0022815
0.00229785
0.00239944
0.00237117
0.00235779
0.00235367
0.00235291
0.00205248
0.00204871
0.0020412
0.00202926
0.00201305
0.00201702
0.00202724
0.00202215
0.00202022
0.00201984
0.00189054
0.00188994
0.0018902
0.00189494
0.00188866
0.00168072
0.00170934
0.00170588
0.00170632
0.00170942
0.00164531
0.00165394
0.00166515
0.00166695
0.00161292
0.0012835
0.00126082
0.00125432
0.00125299
0.0012527
0.00122912
0.00122874
0.00123068
0.00123598
0.0012499
0.00143067
0.00144151
0.00145037
0.00145023
0.00144541
0.00171525
0.00171326
0.00171326
0.00171943
0.00172185
0.00193861
0.00193812
0.00193753
0.00194086
0.00194484
0.00221786
0.00221609
0.00220998
0.00219274
0.00213912
0.00248454
0.00254039
0.0025415
0.00253419
0.00253009
0.00246461
0.00246425
0.00245829
0.00244055
0.00240227
0.00271993
0.00275125
0.00275024
0.00274703
0.00274738
0.00304338
0.00304202
0.00304133
0.0030337
0.00297529
0.00291033
0.0029514
0.00296997
0.00298133
0.00298692
0.00306366
0.0030542
0.00304253
0.00303353
0.00302883
0.00319314
0.0032436
0.00325032
0.00325139
0.00325317
0.0033044
0.00329924
0.00329354
0.003287
0.00324878
0.00313364
0.0031944
0.00321471
0.00322874
0.00323857
0.00323086
0.00322403
0.00321361
0.00319571
0.00314143
0.00308721
0.00314369
0.00316382
0.003177
0.00318627
0.00326083
0.0032565
0.00325133
0.00324086
0.00319712
0.00299591
0.00304048
0.00305246
0.00305958
0.00306398
0.00292758
0.00292322
0.00291775
0.00291083
0.00289581
0.00272536
0.00273923
0.00274484
0.00274957
0.00275273
0.00252257
0.00252135
0.00252002
0.00251878
0.00251794
0.00233487
0.00231653
0.00231953
0.00232481
0.00232873
0.00234547
0.00234799
0.00235173
0.00235164
0.00235175
0.00217933
0.00206224
0.00205364
0.00205423
0.00205585
0.00205755
0.00218746
0.00219094
0.00219371
0.00218929
0.0022166
0.00222317
0.0022273
0.00223043
0.00210267
0.00209375
0.00208545
0.00208072
0.00208703
0.00220943
0.00222065
0.00209868
0.0021185
0.00225372
0.00237869
0.00213567
0.00207678
0.00218457
0.00205732
0.00204953
0.00205226
0.0020508
0.00199711
0.00201407
0.00200304
0.00199339
0.00203219
0.00203324
0.00209708
0.00213595
0.00212417
0.00206047
0.0020508
0.00203917
0.00218719
0.00210174
0.00207383
0.00217566
0.00194963
0.00218297
0.00236607
0.00252603
0.002631
0.00265596
0.00258057
0.00239622
0.00212804
0.00182013
0.00151355
0.00125267
0.00106643
0.000936677
0.000860226
0.000963534
0.000943016
0.000936331
0.000934024
0.000932605
0.00104891
0.001057
0.00106437
0.00106864
0.00106935
0.00129364
0.00128386
0.00127041
0.00125793
0.00124918
0.00127549
0.00128543
0.00129508
0.00129789
0.00129727
0.00145726
0.00141183
0.00140462
0.00140852
0.00141312
0.00168377
0.00169118
0.00169663
0.00169017
0.00167539
0.00191378
0.00191986
0.00192026
0.00192435
0.00192745
0.00220933
0.00220395
0.00219802
0.00219597
0.00219765
0.00229432
0.00232156
0.00231904
0.00231336
0.0023091
0.00234299
0.00234764
0.00234881
0.00233736
0.00230708
0.0024963
0.00248884
0.00249299
0.00250555
0.00251625
0.00281525
0.00280944
0.00280354
0.00279652
0.00277062
0.00286903
0.00290737
0.00291228
0.00291147
0.00291139
0.00288611
0.00288357
0.00287745
0.00286438
0.00284394
0.00297162
0.002981
0.00298755
0.00299924
0.0030096
0.00315695
0.00314931
0.00313856
0.00312535
0.00308877
0.00313222
0.00317094
0.00317754
0.0031784
0.00317832
0.0031772
0.00317487
0.00317126
0.00316681
0.00313703
0.00299687
0.00300528
0.00301201
0.00302002
0.0030262
0.00305243
0.00304594
0.00303833
0.00303111
0.00301425
0.00304388
0.00305834
0.00305885
0.00305748
0.00305669
0.00288454
0.00288521
0.00288558
0.00288506
0.00288745
0.00270531
0.00270178
0.00270227
0.00270394
0.00270538
0.00254879
0.00254774
0.00254691
0.00254478
0.00253278
0.00226999
0.00227648
0.00228533
0.00229407
0.00229991
0.00233198
0.00232656
0.00231937
0.0023098
0.00228956
0.00230925
0.00230322
0.00229883
0.00229343
0.00228939
0.00211303
0.0021209
0.0021278
0.00212537
0.00201435
0.00201448
0.00201597
0.00201727
0.00200276
0.00200264
0.00200167
0.00200218
0.0020716
0.0020724
0.00206528
0.00205737
0.00231379
0.00231845
0.00232533
0.00232756
0.00231572
0.00206959
0.00202381
0.00208093
0.00212306
0.00206557
0.00204696
0.00203767
0.00201518
0.00196727
0.00202614
0.0020276
0.0020255
0.00201984
0.00201567
0.00195577
0.00195489
0.00195245
0.00195153
0.00207005
0.00206901
0.00205995
0.00205309
0.00193748
0.00193763
0.00193612
0.00193083
0.00193843
0.00214685
0.00207156
0.00205706
0.00204706
0.00204066
0.00202913
0.00203178
0.00203626
0.00204569
0.00215981
0.00194346
0.00198997
0.00196565
0.00196242
0.00196106
0.00195836
0.0019651
0.00197282
0.00198099
0.00198063
0.00198681
0.00199349
0.00199199
0.00199064
0.00197402
0.00197673
0.00197934
0.00198007
0.00197567
0.00192799
0.00194674
0.00200915
0.00203412
0.00205074
0.00192534
0.00197749
0.00196502
0.00188879
0.00211345
0.00202809
0.00201725
0.00208215
0.00207741
0.00202037
0.00205053
0.00208287
0.00200666
0.0020586
0.0021378
0.00216412
0.00221963
0.00226882
0.00231548
0.0023387
0.00230974
0.0021924
0.00200518
0.00178359
0.00152224
0.00129579
0.00112148
0.000980662
0.00102986
0.0010342
0.00102996
0.00102145
0.00101417
0.000923188
0.000922276
0.000921738
0.000927218
0.000965638
0.00114467
0.00115982
0.00115636
0.00114428
0.00113214
0.0011566
0.00115668
0.00115719
0.00116123
0.00117953
0.00139707
0.00135721
0.00134905
0.00134733
0.00134675
0.00161845
0.00162792
0.00163563
0.00163236
0.00161279
0.00176953
0.00173018
0.00172615
0.00173408
0.0017423
0.00210882
0.00210723
0.00210557
0.00210665
0.00210935
0.00217893
0.0021864
0.00218363
0.00217973
0.00217814
0.00225486
0.00226027
0.00226273
0.00225503
0.0022361
0.00243574
0.00241192
0.00241345
0.00242481
0.00243606
0.00271927
0.00271593
0.0027112
0.00270934
0.00271621
0.00272193
0.00273309
0.00273679
0.00273632
0.00273539
0.00272639
0.0027266
0.0027247
0.00271869
0.00272027
0.00288515
0.00286738
0.00286619
0.00287412
0.00288287
0.00298899
0.00298238
0.00297618
0.00297743
0.00298539
0.00304126
0.00302989
0.00302971
0.00303593
0.0030421
0.00294369
0.00294726
0.00294986
0.00294847
0.002947
0.00288842
0.00288272
0.00288499
0.00288429
0.00288273
0.00278407
0.00278477
0.00278505
0.00278518
0.0027955
0.0026502
0.00264528
0.00264484
0.00264485
0.0026454
0.00250703
0.00250747
0.00250893
0.00251051
0.00250392
0.00244349
0.00245012
0.00244902
0.00244698
0.00244609
0.00225835
0.0022533
0.00224535
0.00223612
0.00222808
0.00215745
0.00214709
0.00214954
0.00215491
0.00215887
0.00221071
0.00221852
0.00222999
0.00224027
0.00224634
0.00204139
0.00205793
0.00205508
0.00204716
0.0020392
0.00201451
0.00201577
0.00201543
0.00201455
0.00203154
0.00203542
0.00201453
0.00200859
0.0020046
0.00200217
0.00202783
0.00191838
0.0021492
0.002151
0.00189355
0.00226395
0.00201988
0.00192581
0.00238542
0.00208097
0.00189848
0.00247193
0.00192958
0.00222908
0.00203619
0.00242176
0.00212728
0.00221061
0.00217017
0.00214316
0.00204982
0.00198865
0.00192037
0.00185086
0.00175369
0.00162355
0.00143729
0.001257
0.00110787
0.000995297
0.000896533
0.000901702
0.000884399
0.000878577
0.000873763
0.000869817
0.000889257
0.000900825
0.000912909
0.000921021
0.000928787
0.00109584
0.00105203
0.00103732
0.00103584
0.00103789
0.00124263
0.00124674
0.00125486
0.00127253
0.00131499
0.00142009
0.00141806
0.00141697
0.00140701
0.001396
0.00165081
0.00164422
0.00164086
0.00165631
0.0017158
0.00200686
0.0019646
0.00195165
0.00194966
0.00195046
0.00208354
0.00209131
0.0020973
0.00209566
0.00210094
0.00239327
0.00234974
0.00234216
0.00235023
0.00235983
0.00260674
0.00260341
0.00260248
0.00261121
0.00264671
0.00248252
0.00246034
0.00245785
0.00245696
0.00245604
0.0026343
0.00263465
0.00263586
0.00263778
0.00264801
0.00274227
0.00273041
0.0027276
0.00272609
0.00272532
0.00277975
0.00278103
0.00278435
0.00278621
0.00278709
0.00275017
0.00274469
0.00274329
0.00274039
0.00273932
0.00270129
0.00270662
0.00271371
0.00271811
0.00272053
0.00256501
0.00255465
0.00255285
0.00255272
0.00255372
0.0024058
0.00240606
0.0024072
0.00241147
0.00243102
0.00236878
0.00238046
0.00238237
0.00238363
0.00238498
0.00230832
0.00230928
0.00231153
0.00231369
0.00230484
0.00213408
0.00210789
0.00210454
0.00210796
0.00211108
0.00221641
0.002228
0.00224415
0.00225468
0.00223565
0.00211586
0.00206093
0.00205698
0.00206223
0.00206629
0.00202178
0.00202004
0.00201658
0.00201815
0.00205535
0.0019598
0.00191949
0.00191204
0.00191043
0.00190887
0.00198423
0.00199292
0.00200514
0.00201654
0.00202585
0.00188357
0.00192456
0.00191799
0.00190541
0.00189514
0.00193366
0.00194345
0.00195896
0.00197062
0.00192997
0.00184984
0.00183856
0.00183937
0.00183887
0.00183739
0.00198424
0.00199139
0.00199847
0.00199929
0.00198548
0.00198887
0.00192606
0.0018757
0.00199913
0.00199868
0.00188268
0.00189051
0.00188933
0.00188478
0.00188006
0.00196223
0.0019679
0.00197333
0.00197913
0.0020125
0.00193669
0.00188203
0.00197649
0.00194491
0.00183543
0.00191889
0.00196565
0.00196533
0.00189732
0.00192744
0.00198169
0.00197557
0.00199359
0.00227279
0.00209591
0.00205782
0.00222369
0.00219886
0.00205022
0.00199382
0.00197206
0.00202223
0.00202003
0.00204613
0.00209491
0.0020907
0.00206332
0.00206309
0.00210047
0.0016536
0.00186428
0.00186384
0.00156238
0.00172151
0.00191515
0.00200739
0.00197773
0.00214646
0.0020587
0.00191307
0.00193964
0.00175238
0.00190259
0.00181759
0.00153734
0.00152054
0.00181144
0.00173711
0.00125214
0.00114223
0.00167511
0.00163281
0.00103611
0.00111618
0.00167353
0.00167205
0.00120019
0.000985632
0.00158735
0.00164797
0.00106229
0.00116143
0.00167544
0.00167086
0.00108746
0.00141625
0.00178831
0.00183179
0.00153494
0.00183889
0.00191454
0.0019491
0.00197148
0.00243627
0.00213253
0.00193007
0.00184303
0.0019026
0.00165885
0.00123629
0.000786231
0.000466669
0.000394468
0.000652874
0.0010011
0.0015627
0.00194288
0.00226573
0.0024911
0.00253226
0.00255074
0.00256305
0.00289544
0.00290857
0.00292231
0.00292518
0.00286551
0.00226366
0.00237847
0.00239381
0.00239231
0.00238681
0.00295028
0.00297223
0.00299859
0.00300153
0.0029093
0.00226483
0.00229235
0.00229549
0.00229703
0.00229622
0.00297803
0.0030034
0.00303872
0.00306156
0.00296889
0.00286108
0.00304636
0.00306982
0.00306146
0.00305036
0.00227014
0.00227335
0.0022717
0.00225385
0.00215025
0.00176583
0.00192261
0.00193398
0.00193381
0.00193282
0.00243654
0.00244743
0.00245947
0.00246721
0.00248341
0.00186895
0.00186715
0.00186937
0.00187084
0.00186813
0.00178166
0.00178289
0.00178413
0.00178527
0.00175508
0.00238906
0.00230602
0.00227709
0.00225982
0.00224763
0.00223089
0.00224729
0.00227379
0.0023086
0.00231884
0.00231671
0.00221214
0.00218588
0.00217483
0.00216813
0.00219282
0.00220314
0.00222159
0.00225178
0.00230367
0.00215672
0.00206829
0.00205522
0.00205924
0.00206374
0.00193168
0.00187545
0.00186707
0.00186732
0.00186627
0.00202892
0.00202779
0.00202502
0.00202738
0.00206526
0.00233977
0.00230704
0.00228324
0.00226883
0.00226137
0.00222937
0.00223136
0.00223748
0.00226051
0.00235184
0.00221077
0.00219564
0.00219568
0.00219708
0.0021977
0.00224124
0.00224036
0.00223741
0.00223542
0.00225341
0.00222897
0.00214781
0.00215525
0.00204891
0.00204481
0.00201941
0.0020204
0.00202519
0.00202834
0.00226411
0.0022688
0.00227756
0.00229532
0.00231798
0.0023936
0.00236356
0.00234518
0.00233678
0.00233342
0.00208087
0.00207839
0.00207374
0.00206672
0.0020587
0.00211277
0.00210406
0.00209504
0.00209014
0.00208756
0.00203532
0.00203866
0.00204782
0.00206449
0.0020599
0.00184643
0.00187177
0.00186437
0.00186102
0.00186188
0.00149715
0.00149532
0.00148757
0.00146827
0.0014228
0.00134061
0.0013817
0.00139827
0.00140547
0.00140683
0.00126496
0.00126749
0.00127274
0.00128006
0.00126677
0.00116781
0.00117729
0.00117186
0.00116724
0.00116504
0.0010867
0.00109672
0.00110997
0.00112195
0.00112452
0.000945817
0.00096012
0.000964203
0.000962929
0.000959366
0.000882604
0.000883679
0.000885452
0.000888766
0.000892051
0.000884424
0.000865693
0.000857612
0.000853443
0.000851138
0.000868981
0.000871616
0.000876583
0.000884844
0.000898898
0.000954218
0.000954907
0.000949888
0.000940926
0.000932585
0.000948996
0.000951531
0.000955311
0.000962926
0.00098484
0.00113608
0.00110164
0.00109264
0.0010912
0.00109065
0.00104293
0.000933347
0.00102727
0.00100056
0.000988661
0.000982635
0.000979585
0.000927001
0.000879
0.000887073
0.000899369
0.000899551
0.000895348
0.000890914
0.000846056
0.000845762
0.000846057
0.000850532
0.000876539
0.000909335
0.000877098
0.000869613
0.000868175
0.000868289
0.000908083
0.00090718
0.000906154
0.000907435
0.000927578
0.000895074
0.000881117
0.000880488
0.00088222
0.000883346
0.000926256
0.000926499
0.000928226
0.000936054
0.000962695
0.00113458
0.00114245
0.00113695
0.00112445
0.00111324
0.00111267
0.00110785
0.00110332
0.00110741
0.0011438
0.0013833
0.00135857
0.00134978
0.00134661
0.00134532
0.00160029
0.00160958
0.00161746
0.00161223
0.00158323
0.00173485
0.00168794
0.00168334
0.00169255
0.00170049