/*--------------------------------*- C++ -*----------------------------------*\
  =========                 |
  \\      /  F ield         | OpenFOAM: The Open Source CFD Toolbox
   \\    /   O peration     | Website:  https://openfoam.org
    \\  /    A nd           | Version:  7
     \\/     M anipulation  |
\*---------------------------------------------------------------------------*/
FoamFile
{
    version     2.0;
    format      ascii;
    class       volVectorField;
    location    "1.5";
    object      wallShearStress;
}
// * * * * * * * * * * * * * * * * * * * * * * * * * * * * * * * * * * * * * //

dimensions      [0 2 -2 0 0 0 0];

internalField   uniform (0 0 0);

boundaryField
{
    outlet1
    {
        type            calculated;
        value           uniform (0 0 0);
    }
    Wall
    {
        type            calculated;
        value           nonuniform List<vector> 
40276
(
(0.000133422 6.22452e-05 0.000254139)
(-0.000184724 -4.62584e-06 0.000416032)
(-0.000187807 -4.31445e-06 0.000407082)
(0.000232738 -0.000229213 0.000193074)
(0.000182595 -0.000161214 0.000178517)
(0.000136718 -0.000118494 0.000186967)
(0.000114982 -7.02102e-05 0.000188937)
(0.000134856 -4.37208e-05 0.000207151)
(0.00011014 -2.24598e-05 0.000197042)
(0.000110755 -4.01905e-05 0.000205289)
(0.000510176 3.9994e-05 0.000458677)
(0.000595965 6.10968e-06 0.000500166)
(0.000566196 1.92498e-05 0.000908076)
(0.000544305 2.5784e-05 0.000841068)
(0.000196071 3.73539e-05 0.000251978)
(0.000192647 4.96505e-05 0.00028251)
(0.000148607 5.60426e-05 0.00019927)
(0.000160741 3.98614e-05 0.000141799)
(5.0285e-05 -0.000180921 8.70641e-05)
(6.84307e-05 -0.000237584 0.000118704)
(-6.8218e-05 1.83089e-05 0.000176959)
(-9.20995e-05 2.174e-05 0.000169093)
(-8.39225e-05 2.32138e-05 5.95289e-05)
(-9.90052e-05 2.17479e-05 5.65598e-05)
(-7.82768e-05 1.86918e-05 3.91484e-05)
(-8.93485e-05 1.97812e-05 3.42892e-05)
(-4.22312e-05 2.90911e-05 -1.26637e-05)
(-4.83181e-05 2.94457e-05 -1.09364e-05)
(-0.000185714 5.92796e-05 7.12726e-05)
(-0.000139856 4.224e-05 6.06159e-05)
(-0.000230398 7.51142e-05 0.000151412)
(-0.000278127 9.62543e-05 0.00016173)
(-5.28219e-05 -3.04756e-06 0.000160427)
(-4.7051e-05 -4.74747e-06 0.000149154)
(-2.70377e-05 8.40807e-06 3.46698e-06)
(-2.71397e-05 9.21951e-06 3.46543e-06)
(0.000543171 3.56632e-05 5.46139e-05)
(0.000561113 5.66547e-06 3.40895e-05)
(0.00118608 0.000268159 7.93029e-05)
(0.00144426 0.00039176 7.90114e-05)
(0.000864754 2.74733e-05 -6.35081e-06)
(0.000755617 -2.56289e-06 1.4988e-05)
(0.000151814 -2.45344e-05 -0.000666935)
(0.000168505 -2.5177e-05 -0.000666735)
(0.000142729 4.37587e-06 -0.000648832)
(0.000110994 -1.39241e-05 -0.000600131)
(6.48198e-05 6.79659e-06 -0.000607349)
(6.06556e-05 -7.30087e-06 -0.000538235)
(1.44207e-05 -1.07863e-06 -0.000506314)
(-1.19569e-05 3.73014e-06 -0.000461181)
(-1.48293e-05 -8.03366e-06 -0.000418992)
(-4.36806e-05 5.33513e-06 -0.000435304)
(-5.21275e-05 -4.60099e-06 -0.000383627)
(-6.70022e-05 8.26927e-06 -0.000385884)
(0.000494866 7.63796e-05 0.000226267)
(0.000491847 8.73351e-05 0.000176016)
(-0.000179763 6.90101e-05 0.000259823)
(6.16193e-05 2.17074e-05 0.000183465)
(-0.000200748 7.20706e-05 0.000264141)
(-0.000639847 0.000120436 -0.000606905)
(-0.000691599 7.71271e-05 -0.000636801)
(1.83317e-05 3.36012e-05 0.000280633)
(-1.23676e-05 -1.12018e-05 0.000217469)
(1.95794e-05 -4.83409e-07 1.46685e-05)
(1.92489e-05 -4.1143e-07 1.53448e-05)
(2.04776e-05 -1.51244e-07 1.44281e-05)
(1.99884e-05 -4.17235e-07 1.35298e-05)
(1.90273e-05 -3.52002e-07 1.42712e-05)
(-0.000171293 -1.71964e-06 -0.000157095)
(-0.000187138 1.61632e-05 -0.00016932)
(-8.32921e-05 1.17734e-05 -0.000354691)
(-6.81622e-05 -4.51743e-06 -0.000363205)
(-8.74142e-05 6.57126e-06 -8.71733e-05)
(-8.90057e-05 6.66704e-06 -8.27517e-05)
(-7.7994e-05 5.83233e-06 -7.51993e-05)
(-7.87583e-05 8.51808e-06 -7.39173e-05)
(-8.73052e-05 4.1853e-06 -7.90243e-05)
(1.80179e-05 -5.11113e-07 -1.5349e-05)
(1.45724e-05 -7.78256e-07 -2.06404e-05)
(7.61539e-06 1.9516e-06 -9.07967e-07)
(8.94986e-06 1.90364e-07 -6.01437e-07)
(1.12169e-05 2.94643e-07 -7.80958e-07)
(2.05172e-05 -1.27758e-05 1.41791e-05)
(1.99827e-05 -1.5216e-05 1.50076e-05)
(1.72265e-05 -4.50305e-05 1.05732e-05)
(1.90976e-05 -3.78137e-08 1.41617e-05)
(1.86227e-05 -3.60029e-07 1.29413e-05)
(1.69143e-05 -1.86206e-07 1.38027e-05)
(1.493e-05 -4.72961e-05 9.65962e-06)
(-1.52174e-06 -5.95265e-05 1.79221e-06)
(-3.08797e-06 -5.76692e-05 1.31205e-06)
(-4.18739e-05 -3.33348e-07 -3.83449e-05)
(1.67409e-05 -1.93943e-07 1.25675e-05)
(1.43456e-05 -1.97728e-07 1.35311e-05)
(1.44929e-05 -1.58945e-07 1.23818e-05)
(1.18039e-05 3.17011e-09 1.19437e-05)
(9.12002e-06 -3.52433e-08 1.16374e-05)
(6.58618e-06 -6.96518e-08 1.15991e-05)
(1.75796e-06 2.55672e-07 1.01263e-05)
(-5.58936e-07 1.55752e-07 9.97742e-06)
(-2.78277e-06 -9.20619e-09 9.88095e-06)
(-9.88266e-06 4.27574e-07 6.8023e-06)
(-1.12442e-05 2.10669e-07 5.99501e-06)
(-4.55571e-05 6.47441e-06 -4.04192e-05)
(-1.24729e-05 1.01406e-07 5.07147e-06)
(-1.62306e-06 -2.41677e-06 -2.10674e-06)
(-5.00795e-07 -4.28754e-06 -7.58951e-07)
(-1.3141e-05 -1.31743e-07 3.98488e-06)
(-1.35652e-05 -3.01286e-07 2.70826e-06)
(-1.22599e-05 5.11151e-07 1.63817e-06)
(-1.34372e-05 -4.60228e-07 1.37115e-06)
(-1.18045e-05 3.87142e-07 3.06738e-07)
(-1.25878e-05 -6.00446e-07 -5.35951e-08)
(-1.11771e-05 3.02323e-07 -7.43303e-07)
(-1.06346e-05 -3.39552e-07 -1.49787e-06)
(-9.16854e-06 -1.55676e-06 -1.71193e-05)
(-8.53582e-06 -1.5689e-06 -1.75194e-05)
(-7.98312e-06 -1.84282e-06 -1.59569e-05)
(-0.000231247 -6.01383e-05 0.000466441)
(-0.00022996 -5.77457e-05 0.000422582)
(-1.92495e-05 -3.96183e-06 2.37292e-05)
(-3.2098e-05 -4.66584e-06 3.02784e-05)
(6.55944e-06 -1.26515e-06 1.09814e-05)
(9.92854e-06 -6.60922e-07 6.45403e-06)
(-9.30031e-07 -2.03291e-05 -1.83252e-06)
(2.10112e-06 -1.46158e-05 1.37045e-06)
(-0.000127671 3.80112e-05 0.000184225)
(-0.000109954 4.87131e-05 0.000155501)
(-0.000162607 -1.05191e-05 0.000278466)
(-0.00014233 -1.6478e-05 0.000240171)
(-0.000107592 -4.77337e-07 0.000180688)
(-9.40097e-05 -3.50982e-06 0.00015538)
(-0.000166316 7.70703e-05 0.000499318)
(-0.000232643 0.000137515 0.000704923)
(2.49184e-05 -1.7955e-05 0.000190287)
(1.85688e-05 -1.17165e-05 0.00015974)
(-9.38809e-05 2.50112e-05 0.000194717)
(-4.82883e-05 -7.77317e-07 0.000169914)
(-0.000194051 -3.65501e-05 0.000517445)
(-0.00019598 -1.78679e-05 0.000514446)
(-0.000194285 -3.1127e-05 0.000542764)
(-0.000213865 -6.70277e-06 0.00054686)
(-0.000561611 7.77431e-06 -0.0001515)
(-0.000643468 7.69819e-06 -0.000183711)
(-2.27719e-05 -7.96719e-05 9.96435e-06)
(-2.65661e-05 -7.89354e-05 1.19313e-05)
(-2.18157e-05 -4.38288e-05 6.53996e-05)
(-2.55416e-05 -5.36018e-05 8.17216e-05)
(-2.92588e-05 -5.24979e-05 6.60138e-05)
(-2.34491e-05 -4.04131e-05 5.36851e-05)
(-1.54794e-05 -8.61523e-05 8.48835e-06)
(-1.99065e-05 -9.83604e-05 6.53347e-06)
(-2.35434e-05 -8.34888e-05 8.82205e-06)
(-2.19248e-05 -8.64973e-05 9.21515e-06)
(-2.31368e-05 -0.000128638 -1.56102e-05)
(-1.99752e-05 -0.000111411 -1.41256e-05)
(-7.64744e-06 -5.66215e-05 -3.31673e-06)
(-9.88325e-06 -5.05368e-05 -4.75778e-06)
(-6.08045e-05 -3.05051e-05 9.42847e-05)
(-5.55928e-05 -3.23242e-05 8.90818e-05)
(5.79839e-05 5.98139e-06 -0.000242904)
(5.62272e-05 -1.43938e-06 -0.000229554)
(-0.000137104 -5.77499e-05 -1.24376e-05)
(-0.000136261 -6.45752e-05 -1.46348e-05)
(-0.000335918 -5.21e-05 0.000121901)
(-0.000358439 -5.69978e-05 0.000109554)
(-0.000288481 -6.97635e-05 -2.57743e-05)
(-0.000281383 -5.79422e-05 -3.47585e-05)
(-0.000153366 0.000182268 0.000208476)
(-0.00014616 0.000228175 0.000191662)
(-0.000238635 -4.53617e-05 1.26224e-05)
(-0.000125402 -4.6109e-05 -1.77167e-05)
(-0.000201305 -7.92708e-05 7.29558e-05)
(-0.000174014 -7.76878e-05 6.18779e-05)
(-0.00021843 -5.29922e-05 5.6509e-05)
(-6.47237e-05 -4.15406e-05 -6.85994e-06)
(-3.91922e-05 -2.08977e-05 6.06409e-05)
(-3.22998e-05 -1.9374e-05 5.59902e-05)
(0.000755285 -0.000353532 0.00044548)
(0.000650917 -0.000292686 0.000337564)
(0.000689377 -0.000445019 0.000202222)
(0.000573934 -0.000299615 0.000215565)
(0.000603031 -0.000372724 0.000184086)
(0.000423075 -0.000377893 0.000174912)
(0.000528995 -0.000414861 0.000210651)
(0.000416149 -0.000348275 0.000171166)
(0.000628527 -0.000349634 0.000386422)
(0.000683061 -0.000423526 0.000389618)
(0.000643383 -0.000394593 0.000296934)
(0.000557375 -0.000450647 0.000166467)
(0.000642498 -0.000461573 0.000153972)
(0.000530593 -0.000383775 0.000191009)
(0.000292538 -0.000272706 0.000170415)
(0.000409467 -0.000375964 0.000186308)
(0.000328993 -0.000288356 0.000185295)
(0.000282189 -0.000269362 0.000188819)
(0.000146958 -0.00011488 0.000187406)
(3.03124e-05 4.5176e-06 0.000383553)
(1.3912e-05 1.17477e-05 0.000337476)
(4.23936e-05 3.24897e-05 0.000274452)
(3.81815e-05 3.38539e-05 0.000244133)
(7.61295e-05 4.40787e-05 0.000249677)
(3.18456e-06 1.57277e-05 0.000284728)
(1.43198e-05 2.68512e-05 0.00025905)
(0.000189866 2.12805e-05 0.000327901)
(0.000215703 3.86372e-05 0.000364096)
(0.000131892 -1.33305e-06 0.00021821)
(0.000156111 -1.02705e-05 0.00026144)
(0.000134511 -2.52533e-05 0.000225991)
(0.000119837 -1.22342e-05 0.000205301)
(0.000160319 -3.56674e-06 0.000279884)
(0.000158227 1.01117e-05 0.000299913)
(0.000137726 -4.80224e-06 0.000270262)
(0.000128587 -2.1327e-05 0.000247635)
(0.000112101 -3.95043e-06 0.000200687)
(0.000111137 -5.19398e-07 0.000186663)
(0.000103231 -2.11781e-05 0.000179634)
(0.000146263 4.98531e-06 0.000250508)
(0.000102712 -7.42668e-06 0.000191485)
(8.73573e-05 -2.441e-05 0.000182247)
(0.000165882 -2.21122e-06 0.000444578)
(0.000156125 -1.53283e-06 0.000443819)
(0.000114962 -1.33342e-05 0.000446557)
(4.77345e-05 -2.22338e-05 0.000427063)
(0.000184682 2.18672e-06 0.00041144)
(0.000122857 -2.85666e-05 0.000369605)
(7.81733e-05 -2.82413e-05 0.000334013)
(3.3089e-05 -3.56298e-05 0.000299117)
(3.79967e-05 -5.52465e-05 0.000293268)
(-1.94505e-05 -3.12812e-05 0.000316433)
(-4.14742e-05 -5.43682e-05 0.00028288)
(-2.52911e-05 -1.08086e-05 0.000250848)
(-1.91968e-05 3.65632e-06 0.000212796)
(-5.33305e-05 -3.57218e-05 0.000206703)
(-4.25693e-05 -1.46276e-05 0.000181448)
(0.000136424 -5.61897e-06 0.000274746)
(0.000132887 -5.37249e-06 0.000283362)
(9.90194e-05 -2.9843e-05 0.000255965)
(4.3244e-05 -6.21011e-05 0.000285628)
(0.000100544 -2.05136e-05 0.000224988)
(2.87345e-05 -5.2865e-05 0.000187126)
(1.33574e-05 -5.09746e-05 0.000229262)
(-4.09887e-05 -6.12217e-05 0.000209654)
(-1.64054e-05 -6.60316e-05 0.000168703)
(-4.31643e-05 -5.90793e-05 0.000125783)
(-4.15834e-05 -6.96163e-05 0.000116098)
(-9.94978e-05 -8.08806e-05 0.000101193)
(-7.18146e-05 -5.32534e-05 0.000153868)
(-5.97362e-05 -2.94391e-05 0.000118296)
(-5.65407e-05 -4.58367e-05 0.000111172)
(0.000292182 1.80289e-05 0.000509786)
(0.000333161 4.49904e-05 0.000604298)
(0.000290756 -8.16666e-06 0.000516456)
(0.000291384 2.29274e-05 0.000513502)
(0.000500182 0.000144212 0.00047558)
(0.000552319 0.000151533 0.000587412)
(0.000409912 0.000144939 0.000496361)
(0.000450184 0.000135948 0.000583468)
(0.000366642 0.000136245 0.000547374)
(0.000363789 0.000122205 0.000580807)
(0.000508058 0.000208684 0.000648754)
(0.000428823 0.000181275 0.000465059)
(0.000502342 0.000193221 0.000599889)
(0.000327151 0.000131478 0.000501009)
(0.000435814 0.00016508 0.000632084)
(0.000562376 0.00018725 0.000458695)
(0.000459981 0.000181069 0.000512688)
(0.000470477 0.000181954 0.000525785)
(0.000482503 0.000163779 0.000653647)
(0.000529207 0.000217558 0.000599261)
(0.000575659 0.00023846 0.000556333)
(0.000517897 0.000221893 0.000509563)
(0.000511323 0.000186738 0.000619312)
(0.000500321 0.000187117 0.00064537)
(0.000556678 9.4081e-05 0.000569359)
(0.000696857 9.5451e-05 0.00060174)
(0.000544593 0.000122611 0.000569966)
(0.000416612 0.000127497 0.000411549)
(0.000517786 0.000119561 0.000518107)
(0.000527265 8.43915e-05 0.000452391)
(0.000391688 5.93021e-05 0.000313477)
(0.000421425 0.0001217 0.000369291)
(0.00048313 0.000102793 0.000368858)
(0.000447015 0.000104563 0.000338764)
(0.000636002 -5.70663e-05 0.000525102)
(0.000657832 -8.89092e-05 0.000503416)
(0.000688087 -0.000221759 0.000446314)
(0.000501755 -9.85153e-05 0.000377434)
(0.000596059 -0.000183458 0.00030348)
(0.000472662 -3.40865e-05 0.00033138)
(0.000632603 -0.00020045 0.000300505)
(0.000389659 -5.03261e-05 0.000239625)
(0.000521316 -0.000152018 0.000198266)
(0.000684355 -0.00032579 0.000190267)
(0.000395699 4.88409e-05 0.000321388)
(0.000403398 8.27821e-05 0.000312637)
(0.000412904 -8.12787e-07 0.000225529)
(0.000405327 4.78004e-05 0.000226704)
(0.000532905 0.000193514 0.000401149)
(0.000515419 0.000189516 0.00052748)
(0.000541568 0.000193318 0.000478045)
(0.000555265 0.000159531 0.00036149)
(0.000625727 0.00021005 0.000390952)
(0.000602203 0.000248423 0.000530387)
(0.000496973 0.000190695 0.000533118)
(0.000542899 0.000195051 0.000567848)
(0.000570213 0.000224358 0.000348028)
(0.000537627 0.000197516 0.000508196)
(0.000537022 0.000205199 0.000521214)
(0.000619766 0.000244209 0.00062902)
(0.000629218 0.000245461 0.000480245)
(0.000472243 0.000126241 0.000305518)
(0.000668673 0.00020564 0.000333142)
(0.000499958 9.87796e-05 0.000277798)
(0.000664264 0.000159293 0.000267809)
(0.000610091 0.000225189 0.000341058)
(0.000604716 0.000196852 0.00040873)
(0.000817821 0.000330053 0.000440087)
(0.000639605 0.000222197 0.000293)
(0.000601006 0.000180443 0.00030961)
(0.000866062 0.000323161 0.000336879)
(0.000635639 0.000302304 0.000414607)
(0.000673327 0.00025274 0.000545995)
(0.000616076 0.000225275 0.000581748)
(0.000740658 0.000287167 0.000500283)
(0.000757426 0.000292959 0.000463917)
(0.000386519 0.000145193 0.000534507)
(0.00039716 0.000150033 0.00054479)
(0.000272317 7.20315e-05 0.000519985)
(0.000404641 0.000144802 0.000610029)
(0.00046447 0.000127808 0.00070516)
(0.000438398 0.000126833 0.000656595)
(0.000392042 0.000131425 0.00054228)
(0.000419618 0.000145261 0.000577093)
(0.00041311 0.000140419 0.000640349)
(0.000373837 4.54895e-05 0.000688266)
(0.000325294 2.14016e-05 0.00063074)
(0.000388331 9.07047e-05 0.000678584)
(0.000352763 7.85566e-05 0.000620357)
(0.000313243 1.46603e-05 0.000535286)
(0.000428847 0.000145023 0.000579707)
(0.000461283 0.000113013 0.00067311)
(0.000397086 9.39371e-05 0.000623758)
(0.00038982 -3.27149e-05 0.000661124)
(0.000490156 0.000131664 0.000764307)
(0.000373569 4.76088e-05 0.000665741)
(0.000483855 0.000191555 0.000561654)
(0.000542755 0.00020987 0.000619134)
(0.00048533 0.000144345 0.000700314)
(0.000435315 0.000157575 0.000587168)
(0.00051347 0.000194016 0.000605746)
(0.000520922 0.00010968 0.000754321)
(0.000513406 0.000119157 0.000810438)
(0.000408385 1.61519e-05 0.000718667)
(0.000368226 1.33348e-05 0.00062432)
(0.00039813 3.81122e-05 0.000670259)
(0.000460689 9.63282e-05 0.000707108)
(0.000384844 4.2609e-05 0.000623009)
(0.000505924 0.000189793 0.00063215)
(0.000518583 7.77061e-05 0.000788259)
(0.000583138 0.000158935 0.000860536)
(0.000275318 -7.48011e-06 0.000487539)
(0.000289713 3.1842e-05 0.000510297)
(0.000348188 0.000111696 0.000550232)
(0.000360099 6.53384e-05 0.000611102)
(0.000334655 8.02395e-06 0.000556778)
(0.000430484 6.68094e-05 0.000694301)
(0.000321468 -3.22596e-05 0.000545123)
(0.000327936 7.74302e-06 0.000552489)
(0.000414054 0.000114933 0.000653262)
(0.000334101 3.27201e-05 0.000566521)
(0.000287293 2.30315e-05 0.000480386)
(0.000344276 -7.90063e-06 0.00056606)
(0.000294288 2.90779e-05 0.000490905)
(0.000332503 2.96375e-05 0.000546181)
(0.000401934 1.77959e-05 0.000654801)
(0.000308366 7.21007e-05 0.000527668)
(0.000302247 3.94536e-05 0.000502913)
(0.000386929 -6.73197e-05 0.000588676)
(0.000468175 9.63381e-05 0.000748686)
(0.00040535 -5.1892e-05 0.000695322)
(0.000509058 3.77869e-05 0.000835703)
(0.000388017 -1.77597e-05 0.000659136)
(0.000407614 -7.08401e-06 0.000690015)
(0.00052214 0.000127064 0.000769091)
(0.000411671 2.39367e-05 0.000662076)
(0.000470713 3.27901e-06 0.000754223)
(0.000497781 2.23108e-05 0.000813862)
(0.000494368 4.22765e-06 0.000788818)
(0.000402484 1.3482e-05 0.000642685)
(0.000452962 1.60904e-05 0.000717786)
(0.000398931 7.0136e-06 0.000629528)
(0.000452217 2.95059e-05 0.000710847)
(0.000562675 0.000181341 0.000707546)
(0.00058034 0.000221629 0.000633616)
(-2.11282e-05 -4.93531e-05 0.00016122)
(0.000564604 0.000144872 0.000791366)
(0.00050034 0.000140138 0.000683755)
(0.000686409 0.000281571 0.000643416)
(0.000593923 0.000245135 0.000587667)
(0.000643095 0.000240338 0.000674537)
(-2.5412e-05 -4.90108e-05 0.000160678)
(0.000573612 0.000190085 0.000731893)
(0.00055694 0.000206901 0.000652126)
(0.000617347 0.000235612 0.000693079)
(0.000565403 0.000165865 0.00078839)
(0.000614121 0.000157373 0.000918221)
(-2.30261e-05 -4.8772e-05 0.000157837)
(0.000459119 5.13723e-05 0.000744178)
(0.0004214 3.47776e-05 0.000710017)
(0.00045044 5.88839e-05 0.000716805)
(0.000524074 3.45861e-05 0.000808085)
(0.000447153 8.62786e-05 0.000697696)
(-2.55115e-05 -3.82217e-05 0.000160875)
(0.000567413 0.000222136 0.000673644)
(0.000594466 0.000108098 0.000852152)
(0.000667355 0.000198854 0.000921688)
(0.000668817 0.00024462 0.000732407)
(0.000781514 0.000307133 0.000602613)
(0.00087226 0.000364642 0.000559072)
(0.000639888 0.000200355 0.000805465)
(0.000619759 0.000205611 0.000709774)
(0.000665982 0.000305663 0.000559336)
(0.000706833 0.000282375 0.000613342)
(0.000677854 0.000246015 0.000714896)
(0.000700651 0.000258317 0.000767866)
(0.000771976 0.00032409 0.000749488)
(0.000668605 0.000228958 0.000811278)
(0.000667462 0.000166966 0.000917987)
(0.000553089 0.000143377 0.000762717)
(0.000608913 0.000128981 0.000951403)
(0.000493237 8.63071e-05 0.000746468)
(0.000579859 7.8754e-05 0.000879031)
(0.000717781 0.000252133 0.00089262)
(0.000606983 0.000208624 0.000751614)
(0.000650166 0.000187927 0.000904696)
(0.000528512 9.43825e-05 0.000847475)
(0.000545795 0.000145096 0.000778144)
(0.000724562 0.000134822 0.00101289)
(0.000628781 0.000116458 0.000987234)
(0.00057795 3.78076e-05 0.000932413)
(0.000564953 1.20579e-05 0.000896204)
(0.000462578 8.19881e-06 0.000775441)
(0.000449297 3.11953e-05 0.000727996)
(0.000593746 9.83137e-05 0.000866445)
(0.000605245 0.000108383 0.000947311)
(0.000565006 7.24395e-06 0.000888836)
(0.000580181 2.86307e-05 0.000911493)
(0.000580881 -3.46022e-05 0.000901084)
(0.000556603 3.88357e-05 0.000851037)
(0.000656885 0.000125826 0.000956237)
(-3.15214e-05 -4.33481e-05 0.000169332)
(0.000489436 -8.66784e-06 0.00080046)
(0.000444142 3.43273e-05 0.000708754)
(0.000646203 0.000149413 0.000951464)
(0.000674738 0.000198172 0.00100541)
(0.000559088 9.20337e-06 0.000928787)
(0.000705095 7.31236e-05 0.0011104)
(0.000517332 4.28991e-05 0.000810956)
(0.000636675 3.07111e-05 0.000976991)
(0.000509383 7.48409e-05 0.00080669)
(0.000489038 2.45894e-06 0.000747248)
(0.000616196 -7.34886e-05 0.000914879)
(0.000689367 4.7866e-05 0.00109005)
(0.000685418 3.27582e-05 0.001077)
(0.000284911 -3.53349e-05 0.000415302)
(0.000213234 2.26425e-05 0.000336386)
(0.000221938 2.32685e-05 0.000335258)
(0.000210804 1.4154e-05 0.000329599)
(0.000159221 3.4953e-05 0.000289671)
(0.000187362 4.06722e-05 0.000320253)
(0.000228455 2.59408e-05 0.000331657)
(0.000180564 5.10853e-05 0.000316518)
(0.000294199 3.60373e-05 0.000520757)
(0.000283279 4.98255e-05 0.000478482)
(-2.32298e-05 -4.19598e-05 0.000154328)
(-2.69193e-05 -4.3996e-05 0.000161271)
(-2.48977e-05 -4.06329e-05 0.000149319)
(-2.6389e-05 -3.69284e-05 0.000150194)
(0.000294062 4.34417e-05 0.000478523)
(0.000255977 7.57507e-05 0.000431416)
(0.00028783 3.44477e-05 0.000417471)
(0.000238615 5.50735e-05 0.000371949)
(0.000286514 2.4257e-05 0.000408893)
(0.000260951 5.15726e-05 0.000389864)
(-2.98596e-05 -3.63307e-05 0.000155665)
(0.00028198 2.82271e-05 0.000397238)
(-3.52122e-05 -2.8967e-05 0.000165793)
(-3.02672e-05 -3.46843e-05 0.000156697)
(0.000160037 6.18701e-05 0.000267483)
(0.000143452 5.85306e-05 0.000240039)
(0.000142686 5.17748e-05 0.000244062)
(-3.36233e-05 -3.45187e-05 0.000154718)
(-2.66897e-05 -3.85249e-05 0.000165694)
(-2.6068e-05 -4.20646e-05 0.000162169)
(-3.25029e-05 -3.38691e-05 0.000176118)
(-3.40748e-05 -4.2508e-05 0.000183856)
(-2.98841e-05 -3.04078e-05 0.000167694)
(-2.87163e-05 -2.62887e-05 0.000160376)
(-3.48495e-05 -3.46029e-05 0.000159923)
(6.22526e-05 4.66315e-05 0.000226964)
(0.000101366 5.38644e-05 0.000253408)
(7.82834e-05 4.72021e-05 0.00021411)
(3.69607e-05 3.47366e-05 0.000224268)
(7.31329e-05 4.65846e-05 0.000222661)
(0.000124056 5.08915e-05 0.000229055)
(0.000149562 6.14109e-05 0.00026636)
(0.000189415 5.05836e-05 0.000248298)
(0.000167737 5.33131e-05 0.000239182)
(0.000156673 6.60101e-05 0.000260562)
(0.000112999 5.80274e-05 0.000221569)
(0.000145383 5.69673e-05 0.000226417)
(0.000200384 4.48981e-05 0.000280858)
(0.000187032 4.71665e-05 0.000281798)
(0.000238219 3.14752e-05 0.000315802)
(0.000185057 4.39667e-05 0.000295539)
(0.000209917 2.88221e-05 0.000297247)
(0.00018075 4.31632e-05 0.000287775)
(0.000237575 6.65019e-05 0.000338526)
(0.000244796 4.06352e-05 0.000301158)
(0.000208201 4.84174e-05 0.000287188)
(0.000193105 4.74333e-05 0.000279594)
(0.000251525 3.48406e-05 0.000358166)
(0.000239026 3.7488e-05 0.000312364)
(0.000269049 5.46583e-05 0.00038352)
(0.000200256 7.31821e-05 0.000304214)
(0.000258034 4.01297e-05 0.000325759)
(0.00023406 4.00125e-05 0.000280735)
(0.000263447 4.51738e-05 0.000323989)
(0.000232534 5.94496e-05 0.000318537)
(0.000251007 5.91791e-05 0.000366558)
(0.000292161 3.01966e-05 0.000391625)
(0.000295793 1.61153e-05 0.000372132)
(0.000310543 4.88442e-05 0.000426484)
(0.00032703 5.29294e-05 0.000426167)
(0.000315332 2.33675e-05 0.000364749)
(0.000286481 2.26466e-05 0.000298859)
(0.000307295 4.16382e-05 0.000360797)
(0.000222872 4.70475e-05 0.000267983)
(0.000190216 4.19287e-05 0.000231628)
(0.000234162 5.45268e-05 0.000276183)
(7.50362e-06 1.98226e-05 0.000183874)
(4.1185e-05 3.4981e-05 0.000184423)
(-1.46685e-05 2.85841e-06 0.000143328)
(3.58316e-05 2.38976e-05 0.000145682)
(8.23375e-05 4.27779e-05 0.000187273)
(0.000143255 4.69528e-05 0.000205331)
(8.60675e-05 4.22219e-05 0.000172407)
(-5.46495e-05 -1.91753e-05 8.9477e-05)
(3.20553e-05 1.37559e-05 8.6606e-05)
(-8.01409e-05 -5.22036e-05 5.54745e-05)
(-6.48537e-05 -3.0359e-05 4.72819e-05)
(-5.88026e-06 -2.45773e-06 3.76087e-05)
(4.06738e-05 1.92366e-05 9.83898e-05)
(5.25567e-05 1.74583e-05 6.82094e-05)
(9.51973e-05 3.7078e-05 0.000127895)
(0.000140638 3.06598e-05 9.87788e-05)
(3.19982e-05 1.13211e-05 4.39475e-05)
(5.99655e-05 2.02339e-05 6.52528e-05)
(0.000138346 3.64679e-05 8.50113e-05)
(0.000304807 4.8331e-05 0.00034394)
(0.000381902 1.44572e-05 0.000422793)
(0.00032937 2.77463e-05 0.00037293)
(0.00038088 2.26475e-05 0.000413377)
(0.000197175 5.43158e-05 0.000241369)
(0.000284871 3.1533e-05 0.000295535)
(0.000241807 4.14667e-05 0.000258021)
(0.000271615 4.36033e-05 0.000292252)
(0.00019612 5.27866e-05 0.000217231)
(0.000240022 5.07054e-05 0.00027345)
(0.000324465 1.24446e-05 0.000271245)
(0.000392734 2.50981e-05 0.000357244)
(0.000408261 -2.88982e-07 0.000398795)
(0.000374014 1.25288e-05 0.000334628)
(0.000336252 3.96358e-05 0.000361596)
(0.000198398 3.54667e-05 0.00012975)
(0.000229174 3.65724e-05 0.000173926)
(0.000295307 2.22419e-05 0.000231632)
(0.000263362 2.94714e-05 0.00016588)
(0.000265253 3.60477e-05 0.000201747)
(0.000189621 4.12457e-05 0.000130288)
(0.000246828 3.47558e-05 0.000167664)
(0.000359176 3.41522e-05 0.000302263)
(0.000391836 5.23953e-06 0.000320748)
(0.000452177 -9.99022e-06 0.000321673)
(0.00038058 1.31703e-05 0.000266719)
(0.00034473 1.78533e-05 0.00023266)
(0.000374159 1.05005e-05 0.000239044)
(0.000267426 4.77399e-05 0.00045618)
(0.000275317 2.75359e-05 0.000454819)
(0.00031225 -1.9697e-05 0.000485786)
(0.000300377 1.49038e-05 0.000472187)
(0.000248762 6.33606e-05 0.000423379)
(0.00028093 9.96632e-06 0.000427151)
(0.000399452 -2.41847e-05 0.000594087)
(0.000275713 3.07323e-05 0.000454488)
(0.000293317 1.64859e-05 0.000454737)
(0.000336176 2.61701e-05 0.000521386)
(0.000318593 1.05219e-05 0.000460278)
(0.000282495 2.90165e-05 0.000420258)
(0.000312244 2.95737e-05 0.000463702)
(0.000415439 -3.4942e-06 0.000596211)
(0.00044531 1.73949e-05 0.000732026)
(0.00032872 4.07658e-05 0.000522772)
(0.000370305 4.34602e-05 0.00059815)
(0.000374951 5.36509e-05 0.000628188)
(0.000392092 3.0107e-06 0.00059903)
(0.00051804 -6.69566e-05 0.000729807)
(0.000466873 -7.78792e-05 0.000636046)
(0.000375378 7.71521e-05 0.0006266)
(0.000380099 1.32893e-05 0.000581141)
(0.000324181 3.52904e-05 0.000487422)
(0.000364406 2.911e-05 0.00053961)
(0.000344465 1.56259e-05 0.000480232)
(0.000289985 3.76889e-05 0.000420426)
(0.000331261 3.19018e-05 0.000470651)
(-3.63928e-05 -3.00249e-05 0.000161772)
(0.000418288 -2.67831e-05 0.000561224)
(0.000361766 2.41586e-05 0.000487987)
(0.000410555 3.81521e-05 0.000562349)
(0.000362348 2.11753e-05 0.000549536)
(0.000402877 3.29733e-06 0.000556994)
(0.000466475 -8.63624e-06 0.000631808)
(0.000376272 3.02537e-06 0.000484588)
(0.000339169 1.47825e-05 0.000410073)
(0.000349186 4.63254e-05 0.000487118)
(0.000592552 -3.11633e-05 0.000904973)
(0.000400228 3.47334e-05 0.000627061)
(-3.65285e-05 -2.58273e-05 0.000149454)
(0.000418903 1.61102e-05 0.000621347)
(0.000478636 2.14025e-05 0.000718418)
(0.000567119 -2.89871e-05 0.000824024)
(0.000540424 -5.07173e-05 0.000733428)
(0.000375609 2.31767e-05 0.00054167)
(-4.16723e-05 -2.12559e-05 0.000161269)
(0.00043828 -6.62432e-05 0.000507587)
(0.000472947 1.2527e-05 0.00064481)
(0.000540859 -1.31554e-05 0.000793325)
(0.000451572 1.08921e-05 0.000657419)
(0.000510336 2.59872e-05 0.00073795)
(0.000552254 -7.40764e-06 0.000754751)
(0.000459559 5.46575e-05 0.00065813)
(0.000617572 -6.03622e-05 0.000802967)
(0.00050496 -1.59446e-05 0.000661748)
(0.000552815 7.51985e-06 0.000763331)
(0.000452474 3.8695e-05 0.000713617)
(0.000454398 -1.09946e-05 0.000673024)
(0.000553532 -3.79171e-05 0.000803062)
(0.00061468 -1.47061e-05 0.000930448)
(0.00058434 -7.83772e-05 0.000845672)
(0.000522446 9.73694e-05 0.000829401)
(0.000639014 -5.56908e-05 0.000969884)
(0.000589655 0.000122233 0.000945162)
(0.000548662 4.49828e-05 0.000861686)
(0.000531656 2.28521e-05 0.000804943)
(0.000631972 -3.93873e-05 0.00091631)
(0.000499681 4.98733e-06 0.000762659)
(0.000527071 -8.86321e-06 0.000751125)
(0.000612152 -4.1093e-05 0.000844869)
(0.000721684 -6.1399e-05 0.000968845)
(0.000525971 -1.09713e-05 0.00076181)
(0.000575683 -3.68949e-05 0.000742188)
(0.000634886 3.07614e-05 0.000887457)
(0.000383576 2.79805e-05 0.000477324)
(0.000369327 -1.80813e-05 0.00045224)
(0.000419984 -2.50972e-05 0.000467827)
(0.000428267 3.35208e-05 0.000565513)
(0.000504526 3.35298e-06 0.000643919)
(0.000442461 4.03442e-05 0.000558124)
(0.00043507 -1.08145e-05 0.000484014)
(0.000414486 7.12015e-06 0.000421716)
(0.000433449 1.73113e-05 0.000466287)
(0.000523772 -1.63247e-05 0.000580023)
(0.000478214 -1.84834e-05 0.00049555)
(0.000517033 -1.01046e-05 0.000558609)
(0.00056665 -3.95513e-05 0.000674893)
(-4.44012e-05 -1.70499e-05 0.000159492)
(0.00048035 -3.87681e-06 0.00059067)
(0.000527848 -5.44681e-06 0.000655854)
(0.000664918 -8.69494e-05 0.000814768)
(0.000565386 -2.55545e-05 0.000675749)
(0.00060364 7.56671e-07 0.000776351)
(-4.77057e-05 -1.23392e-05 0.000160803)
(0.000608311 -6.14876e-05 0.000674558)
(0.000573932 -8.38966e-05 0.000521436)
(-3.62155e-05 -3.44854e-05 0.000184365)
(0.000576842 1.41862e-06 0.00068627)
(0.000469035 -5.33298e-06 0.000464242)
(-4.02946e-05 -2.71488e-05 0.000187641)
(0.000454788 -1.53345e-05 0.000401392)
(0.000470028 1.0106e-05 0.000459728)
(-3.44766e-05 -3.42791e-05 0.000169485)
(0.000538305 -9.81919e-08 0.000438063)
(-3.76208e-05 -1.66824e-05 0.000170753)
(-4.09512e-05 -2.87047e-05 0.000184359)
(0.00052745 -5.38504e-05 0.000474067)
(0.000542285 -6.28914e-05 0.000420412)
(-4.21425e-05 -2.73023e-05 0.000184141)
(0.000546714 9.02538e-06 0.000582508)
(0.00059211 -0.000437779 0.000177703)
(-4.56974e-05 -1.98196e-05 0.00017939)
(0.000620482 -0.000464178 8.69943e-05)
(0.000509694 -0.000398525 9.91425e-05)
(-4.46904e-05 -2.04614e-05 0.000183445)
(0.000457704 -0.00039068 0.000161601)
(0.000502551 -0.000423764 0.000124112)
(-4.86052e-05 -1.30347e-05 0.000192196)
(0.000389524 -0.000351613 0.000104862)
(0.000466072 -0.000364099 0.000209027)
(-3.73637e-05 -1.96346e-05 0.000165296)
(-3.38321e-05 -1.73798e-05 0.000152386)
(0.000492749 -0.000399326 9.02642e-05)
(-3.94877e-05 -2.3814e-05 0.00015484)
(-4.13767e-05 -1.82064e-05 0.000169292)
(0.000340534 -0.000317941 0.000158355)
(-3.97984e-05 -1.5811e-05 0.000153701)
(-4.3763e-05 -1.31876e-05 0.000167658)
(0.000390468 -0.000365219 0.000138068)
(-4.23285e-05 -1.25671e-05 0.000151853)
(0.000300818 -0.000285614 0.000129173)
(0.000214098 -0.000224085 0.000120617)
(0.000299208 -0.000292508 0.000158259)
(0.000233056 -0.000215168 0.000155257)
(0.000197298 -0.000202893 0.000121556)
(0.000255549 -0.000231736 0.000139729)
(0.000202985 -0.000198326 0.000127175)
(0.000334338 -0.000275254 0.000203899)
(0.000360493 -0.000310551 0.00013326)
(0.000399882 -0.000396369 6.33707e-05)
(0.0005316 -0.000448807 7.7441e-05)
(0.000386541 -0.000327762 0.000116177)
(0.000238893 -0.000245604 8.20848e-05)
(0.000382722 -0.000357982 0.000111079)
(0.000284783 -0.000248721 0.000144814)
(0.000266605 -0.000262687 0.000155162)
(0.000288745 -0.00024049 0.000175749)
(0.0003326 -0.000283345 0.000112632)
(0.000156278 -0.000188339 6.98394e-05)
(0.000228474 -0.000205962 0.000119554)
(0.000175373 -0.000163628 0.00011849)
(9.31571e-05 -9.57888e-05 0.000100853)
(0.000143518 -0.000137187 0.000129284)
(0.000120493 -9.45681e-05 0.000140763)
(0.00010772 -9.77085e-05 0.000136481)
(9.14113e-05 -5.42457e-05 0.0001376)
(7.04955e-05 -6.14366e-05 0.000104076)
(-2.56182e-05 -3.88128e-05 0.000145533)
(8.69831e-05 -5.8697e-05 0.000113716)
(7.75068e-05 -6.14601e-05 9.73699e-05)
(7.04163e-05 -4.64389e-05 0.000109563)
(6.4076e-05 -2.74188e-05 9.84618e-05)
(0.000193975 -0.000206144 0.000144751)
(-2.84493e-05 -3.55035e-05 0.000147902)
(0.000128997 -0.000136613 0.000108416)
(0.000185184 -0.000171294 0.000131859)
(0.000155863 -0.000137876 0.000136929)
(0.000129563 -0.000125053 0.000133974)