/*--------------------------------*- C++ -*----------------------------------*\
  =========                 |
  \\      /  F ield         | OpenFOAM: The Open Source CFD Toolbox
   \\    /   O peration     | Website:  https://openfoam.org
    \\  /    A nd           | Version:  7
     \\/     M anipulation  |
\*---------------------------------------------------------------------------*/
FoamFile
{
    version     2.0;
    format      ascii;
    class       volScalarField;
    location    "3.25";
    object      p;
}
// * * * * * * * * * * * * * * * * * * * * * * * * * * * * * * * * * * * * * //

dimensions      [0 2 -2 0 0 0 0];

internalField   nonuniform List<scalar> 
382612
(
0.00220056
0.00206386
0.00208796
0.00209925
0.00192901
0.00238963
0.00221809
0.00204331
0.00188446
0.00181201
0.00191143
0.00189743
0.0019107
0.00200672
0.00201108
0.00219582
0.00205704
0.00220038
0.00212325
0.00215723
0.00218928
0.00223183
0.00227471
0.00236525
0.00233679
0.00230314
0.00227459
0.00287246
0.00293395
0.00298453
0.00302643
0.00280576
0.00279302
0.0027778
0.00275422
0.00263209
0.00218804
0.00219119
0.00228629
0.00233593
0.00238115
0.00242261
0.0023949
0.00236965
0.00233769
0.00230115
0.00221406
0.0022343
0.00226416
0.00228961
0.00241006
0.00237645
0.0023394
0.00230101
0.00223368
0.00215707
0.00215622
0.00215656
0.00224898
0.00220014
0.00229664
0.00230041
0.0023371
0.00278039
0.00231547
0.00209644
0.00250246
0.00268493
0.00279194
0.0029909
0.00301922
0.00302581
0.00303009
0.00332559
0.00331171
0.00329292
0.00325836
0.00311519
0.00281386
0.00296931
0.00302926
0.00306789
0.00309488
0.00349176
0.00349699
0.00349997
0.0034614
0.00320282
0.00243206
0.00263659
0.0026887
0.00271474
0.00273212
0.00291122
0.00292457
0.00293909
0.00291693
0.00272642
0.00221407
0.00220875
0.00227865
0.00231032
0.00234424
0.0023825
0.00227401
0.00225899
0.00224263
0.00223447
0.00206124
0.00209883
0.00213225
0.00215847
0.0023913
0.00235052
0.0023084
0.00226854
0.0021924
0.0019295
0.00196332
0.00200483
0.00203433
0.00205558
0.00222244
0.00217792
0.00213413
0.00209216
0.00198946
0.00177503
0.00193126
0.00216163
0.00220462
0.0022249
0.00223543
0.00245808
0.00246332
0.00247056
0.00246866
0.00252491
0.0024869
0.00242154
0.00240138
0.00238354
0.00237023
0.00196045
0.00194397
0.00192396
0.00190106
0.00207667
0.00211201
0.00213925
0.0021608
0.00217849
0.0021557
0.00213216
0.00211351
0.00213943
0.00206037
0.00200475
0.00200749
0.00202142
0.00203423
0.00194709
0.00208026
0.0020946
0.00180889
0.00185922
0.00188382
0.00221171
0.00243471
0.00174719
0.00179534
0.00209727
0.00179499
0.00184829
0.00182598
0.00180909
0.00181629
0.00182807
0.00183401
0.0024751
0.00248816
0.00250777
0.00251983
0.00244217
0.00182566
0.00182044
0.00182062
0.00182801
0.00183537
0.00232637
0.00234671
0.00237736
0.00240526
0.00239366
0.00203585
0.00221883
0.0022561
0.00226098
0.00225968
0.00226055
0.00197224
0.00197339
0.00197731
0.00198964
0.00152877
0.00154218
0.00155694
0.00156401
0.00206901
0.00206078
0.00205019
0.00204189
0.00206942
0.00152825
0.00151334
0.00203934
0.0019421
0.00152306
0.00176567
0.00199592
0.00167049
0.0019734
0.00194532
0.00169708
0.00146195
0.00182402
0.00190737
0.0017416
0.00156128
0.00180426
0.0019242
0.00193899
0.00206817
0.00200708
0.00186786
0.0017797
0.00205234
0.00194723
0.00202028
0.00211404
0.00210168
0.00206609
0.00219418
0.00225733
0.00204953
0.00199884
0.00205729
0.00207402
0.00209748
0.00212352
0.00238424
0.00237609
0.00236003
0.00230919
0.00266721
0.00264552
0.00262702
0.00260899
0.00319225
0.00317776
0.00316278
0.00312582
0.0029386
0.00274258
0.00264819
0.00269125
0.00271654
0.00272605
0.00273634
0.00233879
0.00233811
0.00232802
0.00230819
0.00232389
0.00291495
0.0028935
0.00290671
0.00292195
0.00293396
0.0028013
0.00278361
0.00275609
0.00273331
0.00274629
0.00309623
0.00306953
0.00307261
0.00308995
0.00310436
0.00338827
0.0033866
0.00338277
0.0033651
0.00325892
0.00315092
0.00331975
0.00336324
0.00338353
0.00339561
0.0039214
0.0039254
0.00392941
0.0038932
0.00361589
0.00270664
0.00277962
0.00280395
0.00283218
0.00285616
0.0028973
0.00288445
0.00286679
0.00283035
0.00266103
0.00236528
0.00249349
0.0025431
0.00257888
0.00260324
0.00301886
0.00303599
0.00306108
0.00305688
0.00287379
0.00188466
0.00193828
0.00195733
0.00198547
0.00201125
0.00228649
0.00234507
0.00236902
0.00238729
0.0023997
0.00213673
0.00211216
0.00208056
0.0020544
0.00199079
0.00261737
0.00271113
0.00270234
0.00267223
0.00264883
0.0017919
0.00177505
0.00175358
0.00174043
0.00172594
0.00240871
0.00239994
0.00237019
0.00233735
0.00231481
0.00165039
0.00164682
0.00164223
0.00165231
0.00172479
0.00174888
0.00170958
0.00171005
0.001724
0.00173616
0.00212469
0.00214628
0.0021765
0.00221095
0.00226794
0.00173326
0.00164053
0.00163008
0.00163668
0.00164167
0.00214782
0.00216304
0.00218514
0.00220691
0.00220276
0.00195259
0.00206759
0.00208252
0.00208704
0.00208557
0.00208415
0.00190237
0.0019023
0.00190303
0.00191029
0.00166087
0.00166188
0.0016665
0.00166834
0.00198629
0.00198611
0.00198449
0.00198259
0.00198872
0.00167256
0.00188465
0.00183184
0.00182405
0.00182618
0.00182711
0.00171868
0.00182243
0.00205627
0.00199807
0.00197439
0.00196037
0.0019507
0.00186046
0.00186342
0.00186576
0.00186383
0.00203194
0.00202918
0.00202444
0.00202086
0.0020329
0.00203484
0.00203743
0.00203837
0.00189553
0.0019005
0.0019028
0.0019023
0.00202388
0.00203198
0.00204174
0.00205232
0.00208632
0.00189701
0.002041
0.00207403
0.00199868
0.00167779
0.00192598
0.00193806
0.00168525
0.00164243
0.0019336
0.0019341
0.00160235
0.00210085
0.0021379
0.00206562
0.00198223
0.00185257
0.00203169
0.00176621
0.001788
0.00178988
0.00192384
0.00202996
0.00197207
0.00195749
0.00195391
0.00195282
0.00192988
0.00192661
0.00192172
0.0019226
0.00195261
0.00216317
0.00214912
0.00213524
0.00212954
0.00212909
0.00213064
0.0021341
0.00214141
0.00215753
0.00220138
0.00205517
0.00206489
0.00206181
0.00206018
0.00205669
0.00205447
0.00203631
0.00203447
0.00203209
0.00203232
0.00187416
0.00187811
0.00187994
0.00187966
0.00198545
0.00198781
0.00199051
0.00199288
0.00200419
0.00186067
0.0020093
0.00197989
0.00197427
0.00197049
0.00196687
0.00192673
0.00196101
0.00194419
0.00192066
0.00192237
0.00192707
0.00192944
0.00204878
0.00204783
0.00204537
0.00204384
0.00205844
0.0021754
0.00217996
0.0021734
0.002169
0.00216762
0.00209605
0.00209566
0.00209644
0.00210498
0.00214345
0.00216155
0.00213955
0.00213302
0.00212876
0.00212581
0.00201823
0.00201643
0.00201392
0.00201285
0.00205875
0.00205547
0.00205029
0.00204658
0.00204986
0.00205274
0.00205631
0.00205888
0.00203588
0.00203579
0.00203661
0.0020363
0.00215428
0.00214963
0.00214306
0.00213942
0.00216026
0.00205312
0.00206542
0.00209013
0.00212252
0.00195582
0.00202237
0.00205084
0.00194714
0.00175877
0.00196203
0.00200777
0.00184
0.00217269
0.00213265
0.00209204
0.00211439
0.0020202
0.00206003
0.00210024
0.00204771
0.00212379
0.00205297
0.00202536
0.00199608
0.00199379
0.00199775
0.00200059
0.00211093
0.00210837
0.00210371
0.00209813
0.00210043
0.00219515
0.0021954
0.00219279
0.00219171
0.00219146
0.0021562
0.00215703
0.0021576
0.00215927
0.00217381
0.00224025
0.00223263
0.0022318
0.00223106
0.00223054
0.00223153
0.00222551
0.00221715
0.00220926
0.00221419
0.00212491
0.00210514
0.00210124
0.00209759
0.0020935
0.0021949
0.00218889
0.0021811
0.00217253
0.0021733
0.00210387
0.00207262
0.00207144
0.0020741
0.00207412
0.00207343
0.00207023
0.00206776
0.00206474
0.00206823
0.00208961
0.00209054
0.00209224
0.0020937
0.00206875
0.00206898
0.00206937
0.0020687
0.00206888
0.00209712
0.0021085
0.00208521
0.00210081
0.00212196
0.00198672
0.00202867
0.00209305
0.00207557
0.0021405
0.00210723
0.00205902
0.00208356
0.00194939
0.00199158
0.00210944
0.00215495
0.00206763
0.00205358
0.00207548
0.0020602
0.00210703
0.00213018
0.0021328
0.00206862
0.00198863
0.00199
0.00199516
0.00199843
0.00200014
0.00213988
0.00214078
0.00214383
0.00215108
0.00215854
0.00220808
0.00220975
0.00220677
0.00220551
0.00220526
0.00216439
0.00216075
0.00215503
0.00214858
0.00215406
0.00224765
0.00226151
0.00226519
0.0022661
0.00226658
0.00232815
0.00232726
0.00232733
0.00232634
0.00230802
0.002242
0.00224134
0.00224733
0.00225432
0.00225897
0.00234052
0.00234014
0.0023391
0.00233416
0.00231837
0.00227804
0.00228564
0.0022906
0.00229404
0.00229602
0.0021674
0.00216469
0.00216044
0.00215318
0.00213705
0.00209471
0.00208318
0.0020925
0.00209569
0.00209492
0.00209291
0.00210616
0.00210391
0.00210062
0.00209728
0.00214723
0.00215022
0.00215501
0.00216111
0.00211231
0.0021102
0.00210579
0.00209745
0.00208033
0.0021355
0.00221319
0.00223542
0.00224334
0.00225041
0.00225638
0.00227315
0.00226579
0.00225886
0.0022526
0.00222763
0.00212991
0.00208811
0.00211353
0.0021209
0.00212617
0.00213229
0.00218282
0.00217165
0.00215917
0.00215025
0.00217742
0.00219087
0.00220187
0.00220978
0.00217978
0.00216858
0.00215733
0.0021414
0.00208986
0.00214634
0.00223389
0.00214203
0.00208459
0.00215006
0.00225168
0.00215936
0.00207525
0.00211475
0.00219753
0.00212501
0.00214044
0.00220785
0.00214603
0.00207628
0.00217547
0.00234522
0.00239316
0.0021975
0.00214492
0.00230404
0.00199869
0.00202419
0.00197102
0.00185859
0.00165797
0.00184713
0.00188072
0.00173046
0.00175229
0.00191846
0.00197016
0.00182582
0.00181556
0.00198568
0.00194938
0.00171263
0.0019578
0.00192219
0.00200754
0.00198852
0.002099
0.00204398
0.002028
0.00202337
0.00202183
0.00200077
0.00200298
0.00200902
0.00202274
0.00203648
0.00210581
0.00209652
0.00208605
0.00208078
0.00207854
0.00193362
0.00193308
0.00193113
0.00192649
0.00192208
0.00195388
0.00192492
0.00191336
0.00190957
0.00190854
0.00197554
0.00197612
0.00197852
0.00198466
0.0019937
0.0020361
0.00202883
0.00202635
0.00202726
0.00202822
0.00208091
0.0020795
0.00207537
0.00206812
0.00206323
0.00213082
0.00214445
0.00215541
0.00215937
0.00216048
0.00226202
0.00226015
0.00225843
0.00225691
0.00224935
0.00231094
0.00232372
0.00232752
0.0023298
0.00233117
0.00240648
0.00240344
0.00239914
0.00239228
0.00237386
0.00242202
0.00244764
0.00245784
0.00246291
0.00246584
0.0023645
0.0023577
0.00234818
0.00233895
0.00232937
0.00235373
0.00238432
0.00239548
0.00239988
0.00240198
0.00234193
0.00234081
0.00233733
0.00232885
0.0023019
0.00238621
0.00243783
0.00245287
0.00245541
0.00245478
0.00222457
0.00221249
0.00219863
0.00218876
0.0021921
0.00221334
0.00222912
0.00224339
0.00222972
0.0022155
0.00220005
0.00218107
0.00213578
0.00220432
0.00222439
0.00223556
0.00224923
0.00226074
0.00235072
0.00234759
0.00234197
0.00233361
0.0023147
0.00229341
0.00234411
0.00236012
0.00237015
0.00237817
0.00224418
0.00222956
0.0022137
0.00220387
0.0021475
0.00216423
0.00218117
0.00219815
0.00217826
0.00216471
0.0021508
0.00213499
0.00217127
0.0021796
0.00219112
0.00220167
0.00235998
0.00236047
0.00235845
0.00234562
0.0022987
0.002155
0.0020974
0.00210886
0.00216592
0.0022074
0.00211265
0.00215347
0.00227495
0.00225375
0.00214718
0.00214983
0.00229471
0.00223946
0.00212574
0.00219051
0.00227282
0.00227461
0.00213434
0.00219482
0.00235357
0.00210468
0.00206175
0.00205061
0.00207851
0.00169957
0.00188365
0.00188704
0.00165847
0.00180504
0.00198018
0.00200196
0.00198093
0.00227379
0.00234948
0.00228704
0.00224083
0.00215011
0.00204552
0.00192569
0.00179383
0.00163234
0.00146256
0.00138304
0.00139279
0.00139895
0.00139868
0.00139655
0.00159655
0.00159536
0.00159648
0.00160526
0.00161926
0.00169772
0.00171363
0.00172416
0.00172692
0.00172687
0.00187843
0.0018761
0.0018745
0.0018771
0.00187703
0.00191632
0.00194701
0.00194665
0.00194357
0.00194207
0.00193567
0.00193589
0.00193332
0.0019239
0.00189624
0.00207192
0.00207582
0.00207575
0.00207786
0.00208028
0.00216444
0.00216464
0.00216598
0.00216589
0.00214049
0.00213004
0.00215856
0.00217021
0.00217446
0.00217523
0.00226238
0.00225752
0.00225162
0.00224751
0.00224618
0.00228826
0.00231376
0.00232772
0.00233434
0.00233682
0.00248341
0.00247949
0.00247569
0.00247137
0.00244669
0.0025147
0.00254175
0.00254847
0.00255308
0.002557
0.00250947
0.00250192
0.00249146
0.00247913
0.00245407
0.00247028
0.00250799
0.00251985
0.0025249
0.00252724
0.00238164
0.0023711
0.00235784
0.00234787
0.00234767
0.00243617
0.00246088
0.00246992
0.00247754
0.00248363
0.00245827
0.00245655
0.0024525
0.00244199
0.00241094
0.00246141
0.00246969
0.00247659
0.00248377
0.00248931
0.00236831
0.00236549
0.00236129
0.00235657
0.00235314
0.00223667
0.002245
0.00225276
0.00225971
0.00226438
0.00224345
0.00223959
0.00223551
0.00223178
0.00222845
0.00213129
0.00206941
0.00207262
0.00208014
0.00208724
0.0020941
0.00214481
0.00213722
0.00212849
0.00212423
0.00217056
0.00217664
0.00218565
0.00219322
0.00215467
0.00214547
0.00213616
0.00212434
0.00210322
0.0021676
0.00217085
0.0021156
0.00209756
0.00214589
0.00213242
0.00207225
0.0021239
0.00222473
0.00229487
0.00213954
0.00203668
0.00200186
0.00207657
0.0020467
0.00205171
0.0021002
0.00196502
0.00198996
0.0020172
0.0020281
0.00208474
0.0020562
0.00208381
0.00216364
0.00202963
0.00202903
0.0020845
0.00212795
0.00196038
0.00218751
0.00233029
0.00243267
0.00244792
0.00235809
0.00218189
0.00196809
0.00173776
0.00152361
0.00130541
0.0011116
0.00104629
0.001058
0.00105896
0.00105377
0.00104819
0.0012097
0.00120859
0.00120953
0.00121593
0.00122488
0.00140717
0.00142707
0.00143461
0.00143233
0.00142749
0.0016061
0.00160426
0.0016038
0.00160767
0.0016092
0.0017777
0.00177333
0.00177155
0.00177263
0.00177397
0.00183166
0.00182838
0.00182431
0.00182159
0.00181369
0.00201352
0.00201213
0.00201442
0.00201915
0.00202298
0.00208495
0.00207986
0.0020734
0.0020665
0.00205218
0.00222074
0.00222284
0.00222863
0.00223572
0.00224105
0.00238328
0.00238085
0.00237448
0.00235993
0.00232965
0.00241165
0.00242611
0.00243599
0.0024451
0.0024519
0.00255363
0.00254973
0.00254384
0.00253207
0.00249488
0.00250395
0.00252818
0.00253725
0.00254355
0.00254835
0.00252978
0.00252475
0.00251757
0.00250911
0.00249597
0.00244755
0.00246948
0.00248135
0.00249286
0.00250177
0.00262155
0.0026167
0.00261067
0.00260027
0.00256297
0.00254515
0.00256947
0.00253943
0.00245599
0.00246098
0.00249978
0.00250919
0.00251293
0.00251571
0.0024679
0.00246412
0.0024571
0.00244545
0.00242422
0.00248818
0.00250423
0.00251155
0.00251618
0.00251956
0.0025251
0.00252333
0.00252017
0.00251258
0.00249626
0.00244062
0.00245669
0.00246202
0.00246509
0.00246698
0.00229777
0.00229289
0.00228712
0.00228535
0.00229838
0.0023314
0.0023358
0.00233541
0.00233519
0.00233538
0.00222862
0.00222908
0.0022304
0.00223405
0.00224891
0.00210889
0.00206346
0.00206767
0.00207156
0.00207489
0.00207888
0.00210275
0.00209984
0.00209628
0.00209731
0.00206977
0.00207429
0.00207964
0.00208357
0.00208795
0.00208753
0.00208657
0.00208148
0.0020705
0.00207407
0.00213642
0.00211645
0.00206636
0.00209431
0.00215277
0.0022423
0.00221805
0.00218847
0.00219929
0.00220442
0.00220513
0.00220487
0.00209705
0.00209601
0.00209405
0.00209457
0.00211671
0.00208345
0.00210151
0.00210145
0.00209666
0.00209204
0.00207657
0.00208035
0.0020848
0.00208555
0.00207744
0.00201776
0.00200372
0.00200516
0.00200538
0.00200465
0.00200481
0.00202431
0.00202749
0.0020297
0.00202773
0.00204381
0.00204431
0.0020482
0.00205134
0.00204829
0.00204754
0.00204662
0.0020438
0.00204245
0.00206446
0.00214517
0.00207196
0.0020421
0.00204677
0.00198955
0.00202022
0.00199851
0.00193506
0.00191906
0.00197779
0.00193984
0.00184975
0.00186516
0.00193966
0.00200728
0.00205195
0.00192917
0.00194895
0.00197232
0.00196746
0.00198646
0.00199573
0.00202646
0.00201046
0.00203325
0.00203131
0.0019904
0.00196517
0.0017797
0.00193896
0.00200348
0.00195598
0.00205858
0.00202993
0.00197591
0.00196756
0.0019248
0.00195648
0.00194733
0.00195166
0.00146429
0.00178662
0.00175359
0.00135824
0.00131072
0.00173565
0.00183111
0.00166715
0.00154477
0.00180819
0.00173944
0.00142193
0.0016013
0.00182761
0.00190142
0.00165485
0.00150613
0.00182114
0.00179647
0.00142312
0.00137588
0.00177096
0.00184329
0.00151188
0.00144686
0.00181908
0.00187304
0.00150983
0.00156478
0.00160214
0.00153254
0.00155562
0.00148622
0.00147872
0.00148077
0.00148019
0.0016125
0.00161064
0.00160843
0.00161678
0.0016798
0.0020914
0.0019942
0.00196482
0.00194779
0.00193735
0.00164329
0.00164047
0.00163726
0.00164991
0.00174632
0.00206985
0.00203771
0.00201229
0.00199615
0.00198697
0.00185004
0.00183858
0.00182619
0.00182863
0.00190265
0.00174419
0.00163934
0.00149522
0.00152052
0.00146405
0.00145591
0.00145658
0.00145521
0.00166661
0.00166828
0.00166874
0.00167168
0.00171255
0.00199592
0.00193683
0.00191362
0.00190393
0.00189946
0.00173833
0.00173573
0.00173261
0.00174055
0.0018064
0.00205177
0.00203693
0.002019
0.00200823
0.00200219
0.00183244
0.00182814
0.00182432
0.00183591
0.00192711
0.0018268
0.00177064
0.00168356
0.00169128
0.00167405
0.0016171
0.00160793
0.00160933
0.00161143
0.0018375
0.00184185
0.00185094
0.00186868
0.00188532
0.00192561
0.001901
0.00188517
0.00187848
0.00187595
0.00181207
0.00181017
0.00180759
0.00181002
0.00184084
0.00189728
0.00185308
0.00184839
0.00185016
0.00185158
0.00187483
0.00199668
0.00192655
0.00185946
0.00169865
0.00164389
0.00161987
0.00161967
0.00162236
0.00162359
0.00186656
0.00186753
0.0018744
0.00189147
0.00190811
0.00187526
0.00186112
0.00185218
0.00185083
0.00185232
0.00169441
0.00169485
0.00169283
0.00168568
0.00167967
0.00165249
0.00162364
0.00161066
0.00160739
0.00160715
0.0013791
0.00137992
0.00137885
0.00137265
0.00136372
0.00127552
0.00126821
0.00125839
0.00125402
0.00125221
0.00120247
0.00120338
0.00120627
0.00121627
0.00123543
0.00103457
0.00102832
0.00102116
0.00101968
0.00102043
0.00100517
0.00101035
0.00101835
0.00102677
0.00102874
0.000873086
0.000837615
0.000830917
0.000829313
0.000828693
0.000853153
0.000851436
0.000851362
0.00085668
0.000886157
0.0011128
0.00112196
0.00112336
0.00111643
0.00110798
0.00121885
0.00121675
0.0012154
0.00121973
0.00123791
0.00144131
0.00142992
0.00143015
0.00143361
0.00143678
0.00166957
0.00167511
0.00167897
0.00167199
0.00163901
0.00184811
0.00186394
0.00186238
0.00185996
0.00185974
0.00193405
0.00193845
0.00193997
0.00192917
0.00189118
0.00206349
0.00207177
0.00207338
0.00207521
0.00207829
0.00229553
0.00229366
0.00229138
0.0022831
0.0022467
0.00223573
0.00226045
0.00227194
0.00227634
0.00227715
0.00237407
0.00236661
0.00235876
0.00235394
0.00235837
0.00233957
0.00235245
0.002359
0.00236221
0.00236395
0.00241332
0.00241249
0.00241108
0.00240614
0.00238959
0.00231583
0.00230988
0.00231218
0.00231509
0.00231709
0.00241221
0.00240946
0.00240773
0.00241117
0.00241433
0.00240809
0.00239124
0.00238727
0.00238886
0.0023913
0.00227993
0.00227889
0.00227703
0.00227503
0.00228642
0.00221663
0.00220584
0.00220672
0.00220784
0.00220804
0.00225365
0.00225807
0.00226759
0.0022867
0.00231553
0.00227716
0.00225562
0.00223835
0.00222845
0.00222309
0.00216925
0.00217194
0.00217827
0.00219305
0.00222364
0.0021983
0.00216798
0.00216343
0.00216245
0.00216309
0.00207265
0.00207255
0.00207311
0.00207653
0.00209536
0.00197354
0.00195311
0.00196627
0.00197108
0.00197558
0.00197842
0.00203301
0.00203588
0.00203828
0.00202865
0.00207562
0.00207385
0.00207081
0.00206868
0.00202092
0.00202016
0.00202023
0.00202382
0.00204153
0.00206975
0.00203105
0.00202532
0.00201541
0.00201269
0.00219816
0.00207691
0.00200933
0.00200173
0.00188913
0.00196415
0.00194197
0.00186233
0.00186615
0.00190853
0.00197117
0.00196235
0.00194665
0.00198016
0.0019944
0.0019554
0.00191645
0.00196384
0.00199388
0.00197107
0.00193664
0.00195615
0.00193631
0.00192003
0.00191167
0.00173846
0.00165599
0.00161029
0.00161198
0.00165531
0.00170854
0.00172065
0.00165909
0.00152655
0.00133608
0.00111327
0.000916792
0.000753797
0.000630686
0.000669464
0.000648756
0.000645912
0.000646727
0.000647527
0.000810055
0.000820321
0.000831231
0.000835884
0.000827878
0.000933092
0.000915059
0.0009057
0.000900784
0.000898537
0.00104908
0.0010586
0.00106834
0.00106785
0.00104415
0.00109364
0.001054
0.00105224
0.00105988
0.00106694
0.00137284
0.00138268
0.00139204
0.00138611
0.00134615
0.00146829
0.00146376
0.00146502
0.00146971
0.00147324
0.0017066
0.00170178
0.00169594
0.00169242
0.00169856
0.0017183
0.00174092
0.00174425
0.00174451
0.00174428
0.00178824
0.0017938
0.00179739
0.00178949
0.00175684
0.00193395
0.00192355
0.00192729
0.0019376
0.00194638
0.00213587
0.00213153
0.00212799
0.0021274
0.00213219
0.00206467
0.00208036
0.00208563
0.0020858
0.00208518
0.00204075
0.00204259
0.00204302
0.00203897
0.002038
0.00224133
0.00223147
0.00222493
0.00222802
0.00223349
0.00230679
0.00230412
0.00230323
0.00231017
0.00232789
0.0021732
0.00216929
0.00216938
0.00216936
0.00216825
0.00221997
0.00222088
0.00222192
0.0022227
0.00222175
0.00215779
0.00212349
0.00211792
0.00211804
0.00211866
0.00229522
0.00229884
0.00230726
0.00232267
0.0023336
0.00213174
0.00212432
0.00212455
0.00212374
0.00212271
0.00208224
0.00208209
0.00207997
0.00207498
0.00208174
0.00201565
0.00200842
0.00201532
0.00202116
0.00202431
0.00203549
0.00203215
0.00202647
0.00201596
0.00200317
0.00185252
0.00187031
0.00188498
0.00189346
0.00189776
0.00203058
0.00202665
0.00202022
0.00200505
0.00196117
0.00213643
0.00213114
0.00212177
0.00211509
0.00211164
0.00201416
0.00202273
0.00203139
0.00202979
0.00196756
0.00196891
0.00197205
0.00197407
0.00198716
0.00198347
0.00197834
0.0019743
0.00197962
0.00198473
0.00197925
0.00197279
0.00218501
0.00218669
0.00219084
0.00219084
0.00215199
0.00193281
0.00198514
0.00202752
0.00194135
0.00188632
0.00200938
0.00200038
0.00188951
0.00187146
0.00201712
0.00203215
0.00203434
0.00203184
0.00203058
0.00190256
0.00189911
0.00189208
0.00188331
0.00201878
0.0020236
0.00201571
0.00201026
0.00186939
0.00186869
0.00186591
0.001857
0.00185047
0.00212119
0.00205324
0.0020387
0.00202835
0.00202263
0.00203032
0.00203097
0.00203316
0.00204046
0.00216085
0.00190597
0.00198389
0.00196815
0.00196678
0.00196736
0.00196645
0.00197355
0.00198065
0.00198844
0.00198432
0.00194338
0.00195717
0.00195833
0.00195904
0.00196406
0.001964
0.00196328
0.00196029
0.00194093
0.00183616
0.00183924
0.00198685
0.00200209
0.00196645
0.00190272
0.00195294
0.00195647
0.0018868
0.00209279
0.0020147
0.00197995
0.00205725
0.00204353
0.00197271
0.00198263
0.00194804
0.00186028
0.00176088
0.00163463
0.00148698
0.00138159
0.00129977
0.00125993
0.0012515
0.00124758
0.0012129
0.00113606
0.00101008
0.000887923
0.000749465
0.000654535
0.000561584
0.000615335
0.000617612
0.000612181
0.00060274
0.000594903
0.00057445
0.000572276
0.000571518
0.000577369
0.00061106
0.000783675
0.000802126
0.000797897
0.000785938
0.000774657
0.000790358
0.000788327
0.000786164
0.00078825
0.000804957
0.00101208
0.000985771
0.000978264
0.000977122
0.000977467
0.00123012
0.00123851
0.00124611
0.00124279
0.00121318
0.00135106
0.00132139
0.00132058
0.00132917
0.00133755
0.00160397
0.00160132
0.00159901
0.00160067
0.00160994
0.00153564
0.00154259
0.00154399
0.00154199
0.00154044
0.00153025
0.00153704
0.00154211
0.00154075
0.00154117
0.00182818
0.00179972
0.00179123
0.00179537
0.00180259
0.0019574
0.00195668
0.00195845
0.00197034
0.00200265
0.00183412
0.00183484
0.00183399
0.00183092
0.0018283
0.00181166
0.00181474
0.00181771
0.00182155
0.00184465
0.00208007
0.00206294
0.00204654
0.00204124
0.00204169
0.00210669
0.00210777
0.00211452
0.00213516
0.0021642
0.00226716
0.00222196
0.0022028
0.00219628
0.00219475
0.00195517
0.00195599
0.00195362
0.0019476
0.00195634
0.00198832
0.00198047
0.00198614
0.00198948
0.00199026
0.00200938
0.0020087
0.00200777
0.00200815
0.00201894
0.00202251
0.00202206
0.00202205
0.00202144
0.00202112
0.00205667
0.00205725
0.00205805
0.00205712
0.00204733
0.00199509
0.00199963
0.00200043
0.00199999
0.00199937
0.00194356
0.00193746
0.00192693
0.00190996
0.00188784
0.00187243
0.00186564
0.00187156
0.00187767
0.00188153
0.00204841
0.00205594
0.00206799
0.00208078
0.00207682
0.00193608
0.00197723
0.00197569
0.00196811
0.00196143
0.00193251
0.0019338
0.00193338
0.00193
0.00191652
0.00202786
0.00201296
0.00200616
0.00200105
0.00199856
0.00192645
0.00176682
0.00200854
0.00195577
0.00180106
0.00217671
0.00177888
0.00186223
0.00232773
0.00183147
0.0018936
0.00261044
0.0018127
0.00213791
0.0019773
0.00241326
0.00192404
0.00179438
0.00154442
0.00133464
0.00113112
0.00102292
0.000960724
0.000930847
0.000895152
0.0008252
0.000723226
0.000626183
0.000526196
0.00046536
0.000406188
0.000447394
0.000443852
0.000438715
0.000433276
0.000429113
0.000393297
0.000401319
0.000409092
0.000414701
0.000426011
0.000603411
0.000572821
0.000556092
0.000549724
0.000547831
0.000722325
0.000728311
0.000738468
0.000756336
0.000792656
0.00082857
0.000802399
0.000796003
0.00078784
0.000779617
0.00105516
0.00105615
0.00106355
0.00108811
0.00113666
0.00135574
0.00130352
0.00128306
0.00127469
0.00127098
0.00132256
0.00132905
0.00133566
0.00134215
0.00137402
0.00167606
0.00163688
0.00161538
0.00161039
0.00161146
0.00177381
0.00177592
0.00178262
0.00180074
0.00184353
0.00156903
0.00154253
0.00153952
0.00153965
0.00153957
0.0016827
0.00168364
0.00168562
0.00168938
0.00170456
0.00179637
0.00178962
0.00178517
0.00178153
0.00177906
0.00187348
0.00187983
0.00188814
0.00189095
0.00187228
0.00189556
0.00191104
0.00190641
0.0018967
0.00188849
0.00201113
0.00201971
0.00203212
0.00203919
0.00201666
0.00196979
0.0019682
0.00196706
0.00196701
0.00196714
0.00191394
0.00191292
0.00191046
0.00190762
0.00190389
0.00198508
0.0020033
0.00200939
0.00201334
0.00201632
0.0020212
0.00202215
0.00202377
0.00202209
0.00199674
0.00191724
0.00190483
0.00190519
0.0019092
0.00191229
0.00209364
0.00210399
0.00211949
0.00212854
0.00209005
0.00187057
0.00181045
0.00181037
0.00182195
0.00183052
0.00194582
0.0019436
0.00193978
0.0019383
0.00195432
0.00189045
0.00185752
0.00185247
0.00185203
0.00185113
0.00197128
0.00197979
0.00199193
0.00200194
0.00199504
0.00184557
0.00190442
0.00189975
0.00188708
0.00187667
0.00194206
0.00195209
0.0019684
0.00197778
0.00191043
0.00180737
0.00180877
0.00181318
0.00181428
0.0018136
0.00199146
0.00199837
0.00200497
0.00200392
0.00198132
0.00198019
0.00188633
0.00182471
0.00199252
0.00199442
0.00182774
0.00185873
0.00186075
0.00185715
0.00185296
0.00196627
0.00197177
0.00197723
0.00198247
0.00198842
0.00186387
0.0018291
0.00195093
0.00193609
0.00181712
0.0018775
0.00195305
0.00194794
0.00181298
0.00181266
0.00194924
0.00197975
0.00195167
0.00220544
0.00207706
0.00204886
0.00212272
0.00209945
0.00203304
0.00196121
0.00187819
0.00190075
0.00197944
0.00198382
0.00194365
0.00195252
0.00199486
0.00198104
0.00192485
0.00198034
0.00199396
0.00203438
0.00209195
0.00210306
0.00203136
0.00203385
0.00208607
0.00198218
0.00200979
0.0020117
0.00200332
0.00199186
0.00199999
0.00200414
0.00198627
0.00198164
0.0019827
0.00194662
0.00191481
0.00177815
0.0018968
0.001916
0.00180252
0.001839
0.00194022
0.00191337
0.00191009
0.0019243
0.00190311
0.00192939
0.00193423
0.00188707
0.00191265
0.00190108
0.0019544
0.00199498
0.00192678
0.00193417
0.00196337
0.00201621
0.00196392
0.0019486
0.00202694
0.00227414
0.00201295
0.00196303
0.00207204
0.00201556
0.00201351
0.00185311
0.00156991
0.00118178
0.000813368
0.000676715
0.000729864
0.00109351
0.00131709
0.00169674
0.00190984
0.00194762
0.00196542
0.00197788
0.00229214
0.00230789
0.00232414
0.00232503
0.00224733
0.00161204
0.00172578
0.00174244
0.00174157
0.00173574
0.00239476
0.00241824
0.00244654
0.00245178
0.0023701
0.00168433
0.00169131
0.00169428
0.00169686
0.00169596
0.00245635
0.00248187
0.00251747
0.00254379
0.00246947
0.00243132
0.00260803
0.00262965
0.00261975
0.0026076
0.00183479
0.00183749
0.00183465
0.00181789
0.00173361
0.00144003
0.00155894
0.00156563
0.00156469
0.0015634
0.0020492
0.00206066
0.00207366
0.00208269
0.00210213
0.00151763
0.00150638
0.00150894
0.00151128
0.0015088
0.00146552
0.00146685
0.00146869
0.00147338
0.00146956
0.0020291
0.00194672
0.00191832
0.00190175
0.00189026
0.00179432
0.00180901
0.00183323
0.00186722
0.00188301
0.00188105
0.00178979
0.00176507
0.00175442
0.00174815
0.00171468
0.00172342
0.00173998
0.00176829
0.0018166
0.00169195
0.0016143
0.00160277
0.00160663
0.00161119
0.00142634
0.00138027
0.00137491
0.00137526
0.00137376
0.00146636
0.00146523
0.0014622
0.00146406
0.00149949
0.00181472
0.00178543
0.00176303
0.00175009
0.00174404
0.00167349
0.0016733
0.00167689
0.0016997
0.00180363
0.00169745
0.00169352
0.00169637
0.00169794
0.00169808
0.00170561
0.00170337
0.0016992
0.00169527
0.00170323
0.0017614
0.001676
0.00160104
0.00142575
0.00135593
0.00134455
0.00134914
0.00135248
0.00135324
0.00165919
0.00166268
0.00167046
0.00168905
0.00171323
0.00170843
0.00167846
0.00166048
0.00165351
0.00165075
0.00139235
0.00139342
0.00139325
0.00138846
0.00137871
0.00133849
0.00132807
0.00131691
0.00131021
0.00130626
0.00116083
0.00116455
0.00117283
0.00118855
0.00119782
0.00109052
0.00108861
0.00107947
0.00107518
0.00107386
0.000887393
0.000889929
0.000890613
0.000885853
0.000875505
0.000865484
0.000876172
0.000879171
0.000876369
0.000871678
0.000731922
0.000733331
0.000737219
0.000745901
0.000756794
0.000749514
0.000734354
0.000728106
0.000725591
0.000724301
0.000713907
0.000717382
0.000723543
0.000734568
0.000756489
0.00065656
0.000658662
0.000655178
0.000647918
0.000640932
0.000528023
0.000528512
0.000529784
0.000534146
0.000547407
0.000581084
0.000560008
0.000554966
0.000553307
0.000552453
0.00055936
0.000559892
0.000562434
0.000570678
0.000596623
0.000730705
0.000747667
0.000744179
0.000734349
0.000725569
0.000667773
0.000667585
0.000667433
0.000670011
0.000688139
0.000814992
0.00079201
0.000789075
0.000791521
0.000793665
0.000787908
0.000686695
0.000685762
0.000657454
0.000649137
0.000646285
0.000645037
0.00063418
0.000588143
0.000623944
0.000640701
0.000640664
0.000634819
0.000629309
0.000533521
0.000531138
0.000529339
0.000533152
0.000563829
0.000543868
0.000515829
0.000510335
0.000508532
0.000507228
0.000503214
0.000502722
0.000502894
0.000506565
0.000526605
0.000436531
0.000418094
0.000414967
0.000417199
0.000419275
0.000467353
0.000468565
0.000471789
0.000481391
0.000506694
0.000576547
0.000572411
0.00056638
0.00055537
0.000545151
0.000660367
0.000657639
0.000657551
0.000668555
0.000706595
0.000895998
0.000859096
0.000843468
0.000836807
0.000833638