/*--------------------------------*- C++ -*----------------------------------*\
  =========                 |
  \\      /  F ield         | OpenFOAM: The Open Source CFD Toolbox
   \\    /   O peration     | Website:  https://openfoam.org
    \\  /    A nd           | Version:  7
     \\/     M anipulation  |
\*---------------------------------------------------------------------------*/
FoamFile
{
    version     2.0;
    format      ascii;
    class       volVectorField;
    location    "3.25";
    object      wallShearStress;
}
// * * * * * * * * * * * * * * * * * * * * * * * * * * * * * * * * * * * * * //

dimensions      [0 2 -2 0 0 0 0];

internalField   uniform (0 0 0);

boundaryField
{
    outlet1
    {
        type            calculated;
        value           uniform (0 0 0);
    }
    Wall
    {
        type            calculated;
        value           nonuniform List<vector> 
40276
(
(0.000282043 5.49196e-05 0.000205136)
(-0.000185104 -6.39714e-06 0.000414472)
(-0.000188496 -5.92114e-06 0.000405936)
(0.000180816 -0.000178797 0.000150507)
(0.000135376 -0.000126141 0.000127736)
(8.91205e-05 -8.32265e-05 0.000120119)
(7.39831e-05 -4.76801e-05 0.000121814)
(8.77465e-05 -2.78438e-05 0.00013517)
(7.32168e-05 -1.11549e-05 0.000130148)
(7.41063e-05 -2.39878e-05 0.000137043)
(0.00046309 4.69509e-05 0.000487819)
(0.000556411 2.15754e-05 0.00053309)
(0.000588795 3.12099e-05 0.000944651)
(0.000567066 3.64351e-05 0.000876374)
(0.000308448 1.02758e-05 0.00026576)
(0.00028408 2.80518e-05 0.000303343)
(0.000325586 4.77092e-05 0.000163251)
(0.000314791 3.87398e-05 0.000102898)
(-9.30544e-06 -0.000121585 -6.6503e-06)
(-2.07591e-06 -0.000151386 4.94794e-06)
(-0.000120122 3.08946e-05 0.000207131)
(-0.000148962 3.53062e-05 0.000195216)
(-0.000106555 2.89898e-05 6.66056e-05)
(-0.000124022 2.68141e-05 6.31029e-05)
(-9.2051e-05 2.19028e-05 4.25975e-05)
(-0.000103752 2.2928e-05 3.70709e-05)
(-9.57333e-05 3.52518e-05 1.24776e-05)
(-9.52991e-05 3.53554e-05 9.07819e-06)
(-0.000185265 5.92743e-05 3.88409e-05)
(-0.000157812 4.81252e-05 2.85486e-05)
(-0.000160976 5.30367e-05 0.000108245)
(-0.000186222 6.53209e-05 0.000118275)
(-5.26268e-05 -3.06541e-06 0.000159838)
(-4.68658e-05 -4.75098e-06 0.000148572)
(-4.64715e-05 9.41979e-06 6.00795e-06)
(-4.61325e-05 1.05073e-05 5.78807e-06)
(0.000590424 5.33586e-05 0.000136158)
(0.000636141 2.66123e-05 0.000132025)
(0.00115768 0.000272458 0.000266609)
(0.00134237 0.000367498 0.00028852)
(0.00100366 4.30814e-05 4.92787e-05)
(0.000936723 1.06793e-05 7.34302e-05)
(-1.85489e-05 -1.55731e-05 -0.000428144)
(3.33543e-06 -1.3266e-05 -0.00040683)
(-1.75942e-05 -5.10447e-07 -0.000407143)
(-1.93121e-05 -7.48731e-06 -0.000356502)
(-4.95961e-05 1.34673e-06 -0.000364471)
(-3.79578e-05 -3.81482e-06 -0.000310525)
(-5.51493e-05 -5.8243e-07 -0.00028176)
(-5.96268e-05 2.03206e-06 -0.000247665)
(-5.22514e-05 -2.39671e-06 -0.000217941)
(-6.77295e-05 2.64706e-06 -0.000225852)
(-6.38849e-05 -8.59469e-07 -0.000193875)
(-6.8391e-05 4.06512e-06 -0.000194076)
(0.000458983 6.9152e-05 0.000203927)
(0.000461377 8.28233e-05 0.000170529)
(-6.05261e-05 2.99981e-05 0.000197468)
(6.33155e-05 2.20876e-05 0.000188576)
(-5.72282e-05 2.53882e-05 0.000200825)
(-0.000452903 -1.49083e-05 -0.000432622)
(-0.000477911 -1.56398e-05 -0.000440617)
(1.88323e-05 3.43754e-05 0.000287848)
(-1.26259e-05 -1.14771e-05 0.000222611)
(1.59037e-05 -4.4189e-07 8.09475e-06)
(1.77281e-05 -2.48138e-07 1.09803e-05)
(1.58199e-05 -1.17876e-07 9.89896e-06)
(1.30758e-05 -2.51266e-07 8.81758e-06)
(1.58685e-05 -2.48375e-07 8.66832e-06)
(-9.48785e-05 -3.78775e-06 -8.70381e-05)
(-0.000104009 6.70063e-06 -9.38987e-05)
(-7.02322e-05 6.84463e-06 -0.000172181)
(-6.72406e-05 -7.26836e-07 -0.000176399)
(-3.96711e-05 2.94778e-06 -3.94164e-05)
(-3.93692e-05 2.95046e-06 -3.76309e-05)
(-3.45347e-05 2.71691e-06 -3.46597e-05)
(-3.35461e-05 3.65658e-06 -3.33458e-05)
(-3.80062e-05 1.75948e-06 -3.56503e-05)
(2.26649e-05 -1.32599e-06 -9.50803e-06)
(1.97759e-05 -1.51849e-06 -1.307e-05)
(2.9216e-06 3.46387e-06 -2.62314e-07)
(3.86787e-06 3.43334e-07 -1.67158e-07)
(8.69651e-06 -5.86115e-08 -5.63075e-07)
(1.90699e-05 -5.81201e-06 1.31239e-05)
(1.78835e-05 -6.13719e-06 1.31831e-05)
(1.88126e-05 -1.50606e-05 1.27697e-05)
(1.51084e-05 -6.53286e-08 1.11151e-05)
(1.27422e-05 -1.99443e-07 9.84458e-06)
(1.4097e-05 -2.30244e-07 1.15917e-05)
(1.68931e-05 -1.56817e-05 1.19198e-05)
(1.06528e-05 -1.93332e-05 8.60118e-06)
(8.53699e-06 -1.88296e-05 7.54714e-06)
(-2.97768e-05 -2.58992e-07 -2.71261e-05)
(1.21322e-05 -1.27603e-07 1.04103e-05)
(1.27318e-05 -2.49845e-07 1.15911e-05)
(1.12037e-05 -1.57794e-07 1.0615e-05)
(9.71133e-06 -6.081e-08 1.02578e-05)
(8.10466e-06 -1.0393e-07 9.77709e-06)
(6.53029e-06 -1.29156e-07 9.31389e-06)
(2.61791e-06 9.46457e-08 6.91016e-06)
(1.25143e-06 2.52417e-08 6.17858e-06)
(-2.42817e-08 -4.59367e-08 5.44763e-06)
(-3.95836e-06 1.06586e-07 1.27977e-06)
(-4.49812e-06 3.19709e-08 4.04063e-07)
(-3.36392e-05 2.91352e-06 -2.96902e-05)
(-4.93743e-06 1.48696e-08 -5.32528e-07)
(-8.00841e-06 -1.02578e-05 -9.65973e-06)
(-6.25972e-06 -1.0815e-05 -7.28228e-06)
(-5.12396e-06 -6.22752e-08 -1.46838e-06)
(-5.20467e-06 -7.37802e-08 -2.50524e-06)
(-4.62744e-06 -1.55357e-09 -3.05927e-06)
(-5.11424e-06 -1.01039e-07 -3.66936e-06)
(-4.43074e-06 -6.91553e-08 -4.29955e-06)
(-4.63087e-06 -1.93077e-07 -4.90915e-06)
(-4.0582e-06 -2.35606e-07 -5.7037e-06)
(-4.06388e-06 -5.14851e-07 -5.71531e-06)
(-1.3061e-06 -1.306e-06 -2.39709e-05)
(-2.2786e-06 -2.65501e-06 -2.6059e-05)
(-3.68325e-06 -2.84214e-06 -2.46621e-05)
(-0.0002567 -6.16104e-05 0.00047699)
(-0.00025817 -5.9782e-05 0.000432725)
(-7.50408e-06 -1.63806e-06 8.40773e-06)
(-1.3387e-05 -2.16955e-06 1.33555e-05)
(-1.91741e-05 -2.62325e-06 2.26524e-05)
(-1.27536e-05 -2.97112e-06 1.84181e-05)
(-9.42064e-07 -2.35259e-05 -1.38516e-06)
(6.98334e-08 -2.14541e-05 -3.9242e-07)
(-0.000128164 2.88261e-05 0.000185022)
(-0.000111013 3.81326e-05 0.000157004)
(-0.000159893 -1.3391e-05 0.000273817)
(-0.000139834 -1.92838e-05 0.000235926)
(-0.000104548 -3.24883e-06 0.000175545)
(-9.14981e-05 -6.38764e-06 0.000151136)
(-0.000160999 9.34282e-05 0.000481876)
(-0.000225362 0.000161978 0.000679381)
(1.18124e-05 -1.33851e-05 0.000188064)
(3.82687e-06 -6.4281e-06 0.000158209)
(-0.000100515 2.70495e-05 0.00019269)
(-5.41119e-05 8.63795e-07 0.000167568)
(-0.000187785 -4.24732e-05 0.000504178)
(-0.000189549 -2.38156e-05 0.000503029)
(-0.000188507 -3.4285e-05 0.000532604)
(-0.000206966 -1.00902e-05 0.000535728)
(-0.000558306 4.22481e-06 -0.000150864)
(-0.000639817 4.60413e-06 -0.000182809)
(-2.27623e-05 -7.96784e-05 9.96066e-06)
(-2.65567e-05 -7.8942e-05 1.19271e-05)
(-2.15435e-05 -4.37771e-05 6.5341e-05)
(-2.52922e-05 -5.35472e-05 8.16516e-05)
(-2.90931e-05 -5.24554e-05 6.59626e-05)
(-2.3274e-05 -4.03778e-05 5.36419e-05)
(-1.54726e-05 -8.61499e-05 8.48816e-06)
(-1.98998e-05 -9.83577e-05 6.53344e-06)
(-2.35135e-05 -8.34866e-05 8.82088e-06)
(-2.18987e-05 -8.64944e-05 9.21414e-06)
(-2.31361e-05 -0.000128638 -1.56102e-05)
(-1.99746e-05 -0.000111411 -1.41257e-05)
(-7.64434e-06 -5.66208e-05 -3.31678e-06)
(-9.88017e-06 -5.05363e-05 -4.75766e-06)
(-6.09481e-05 -3.0966e-05 9.45014e-05)
(-5.57327e-05 -3.27873e-05 8.92963e-05)
(7.51716e-05 4.88531e-06 -0.000242083)
(7.72638e-05 -3.27334e-06 -0.00022804)
(-0.000136257 -5.731e-05 -1.23544e-05)
(-0.000135228 -6.41039e-05 -1.45187e-05)
(-0.000310633 -4.90202e-05 0.000131702)
(-0.000332705 -5.3456e-05 0.000121674)
(-0.000287469 -7.03565e-05 -2.57131e-05)
(-0.00028072 -5.81653e-05 -3.47202e-05)
(-0.000165941 0.000192302 0.000225957)
(-0.000159146 0.000240374 0.000208873)
(-0.000245936 -4.44311e-05 1.30257e-05)
(-0.000129276 -4.58626e-05 -1.82087e-05)
(-0.000205403 -7.81591e-05 7.42669e-05)
(-0.000177124 -7.66702e-05 6.2857e-05)
(-0.000225009 -5.189e-05 5.8175e-05)
(-6.64638e-05 -4.12791e-05 -6.98971e-06)
(-3.91294e-05 -2.08887e-05 6.05432e-05)
(-3.22463e-05 -1.93654e-05 5.58969e-05)
(0.000708918 -0.000304611 0.000474845)
(0.000622555 -0.00025169 0.000383156)
(0.00064833 -0.000393566 0.000238602)
(0.000564637 -0.000270392 0.000263396)
(0.000589959 -0.000336294 0.000236489)
(0.000375566 -0.000319817 0.000178715)
(0.000482068 -0.000363599 0.000216157)
(0.00038165 -0.000305341 0.000178597)
(0.000577312 -0.000298981 0.000395115)
(0.000623301 -0.000369497 0.000384165)
(0.000591842 -0.000340597 0.000315906)
(0.000503936 -0.000388735 0.000183446)
(0.000601712 -0.000414004 0.000178519)
(0.000502944 -0.000340188 0.000221053)
(0.000246199 -0.000223429 0.000152661)
(0.000363749 -0.000326701 0.00017667)
(0.000288698 -0.000246766 0.000172246)
(0.000234825 -0.000222303 0.000160691)
(0.000100519 -8.53926e-05 0.000125386)
(0.000149192 5.84068e-05 0.000131311)
(0.000192018 6.51323e-05 0.000156441)
(0.00017854 5.36081e-05 0.000160307)
(0.000184796 4.6252e-05 0.000120986)
(0.000232119 5.05145e-05 0.00014107)
(0.00019022 6.23059e-05 0.000155432)
(0.000181021 5.48357e-05 0.000148337)
(0.000103419 -5.6314e-06 0.000207788)
(9.29178e-05 -1.94245e-06 0.000202584)
(9.59099e-05 7.06678e-06 0.000150544)
(0.000115886 -1.44586e-06 0.000186253)
(9.31904e-05 -1.09508e-05 0.000152356)
(8.25667e-05 -3.558e-06 0.000137749)
(0.000112585 -9.31436e-07 0.000192076)
(0.00010033 3.25645e-06 0.000191548)
(6.64805e-05 -1.91277e-05 0.000158447)
(7.06295e-05 -1.7746e-05 0.00014125)
(7.53727e-05 2.49561e-06 0.000126969)
(6.39546e-05 -2.56048e-06 0.000107495)
(5.86508e-05 -1.02567e-05 9.81278e-05)
(7.04236e-05 -6.102e-06 0.000128663)
(2.83658e-05 -2.7067e-05 9.0478e-05)
(3.10761e-05 -1.83101e-05 7.34303e-05)
(8.59207e-05 1.00725e-05 0.000193118)
(8.59734e-05 1.51381e-05 0.000178682)
(8.18172e-05 1.73226e-05 0.000170807)
(7.77529e-05 2.43969e-05 0.000154357)
(7.27788e-05 -1.10455e-05 0.000196633)
(5.3483e-05 -1.36223e-05 0.000168396)
(4.37255e-05 -4.73148e-07 0.000124196)
(4.23594e-05 5.07042e-06 0.00011275)
(3.28567e-05 -1.01744e-05 0.000118441)
(0.000120561 4.31574e-05 0.000121546)
(7.68532e-05 2.58403e-05 0.000106839)
(0.000142916 5.09471e-05 0.00012187)
(0.000144478 4.56785e-05 0.000114811)
(9.84378e-05 3.64323e-05 9.35513e-05)
(0.000106476 3.72185e-05 0.00010027)
(5.02576e-05 -2.31937e-05 0.000145085)
(3.31677e-05 -2.13729e-05 0.000124233)
(2.79233e-05 -3.43953e-05 0.000123181)
(-2.97774e-07 -3.43734e-05 0.000107118)
(3.849e-06 -3.49441e-05 7.1647e-05)
(-1.44279e-05 -3.53021e-05 5.87447e-05)
(1.36094e-05 -1.31045e-05 8.6456e-05)
(3.9631e-05 8.30112e-06 7.82392e-05)
(-2.56742e-05 -2.93509e-05 3.00381e-05)
(-3.97277e-06 -1.03304e-05 3.53692e-05)
(-1.88702e-05 -1.88139e-05 1.54111e-05)
(1.50731e-05 3.45023e-06 2.9999e-05)
(5.29747e-05 2.16526e-05 4.20334e-05)
(6.63563e-05 2.39426e-05 6.46719e-05)
(5.85935e-05 2.24889e-05 4.8758e-05)
(0.000297983 1.85074e-05 0.000519561)
(0.000337951 4.71248e-05 0.000612834)
(0.000298997 -8.69013e-06 0.000531043)
(0.000303673 2.11932e-05 0.000534322)
(0.000419536 0.000118275 0.000470826)
(0.000462682 0.000128019 0.000571484)
(0.000330791 0.00011521 0.000472849)
(0.000366684 0.000110057 0.000546929)
(0.000320403 0.000110608 0.000497284)
(0.000306151 9.36036e-05 0.000519339)
(0.000437492 0.000171516 0.000583964)
(0.000367071 0.000146592 0.000438835)
(0.000427394 0.000157275 0.000556076)
(0.00026986 0.00010091 0.000453321)
(0.000366205 0.000131994 0.000568864)
(0.000473554 0.000151991 0.000454157)
(0.000403693 0.000148726 0.000513131)
(0.000404222 0.00014915 0.00052318)
(0.000444335 0.000142178 0.000625834)
(0.000469778 0.000184153 0.000564157)
(0.000512645 0.000199078 0.000553326)
(0.000484469 0.000196371 0.000508527)
(0.000478333 0.0001646 0.000614474)
(0.00046575 0.00016837 0.000620527)
(0.000486753 9.08489e-05 0.000567178)
(0.000616889 9.73192e-05 0.000603433)
(0.000473827 0.000113597 0.000579415)
(0.000353589 0.000110653 0.000436478)
(0.000449686 0.00010797 0.000549606)
(0.000486509 8.40573e-05 0.000481068)
(0.000359668 6.60237e-05 0.000354675)
(0.000382519 0.000115466 0.00041501)
(0.000424061 9.81888e-05 0.000412139)
(0.000416093 0.000106955 0.000392522)
(0.000591956 -4.32526e-05 0.000530522)
(0.000613927 -6.54847e-05 0.00052636)
(0.000645468 -0.000182582 0.00048528)
(0.000484288 -7.6137e-05 0.000429412)
(0.000584141 -0.000154251 0.000357936)
(0.000449212 -1.25344e-05 0.000388426)
(0.000630574 -0.000170543 0.000373016)
(0.00040716 -3.53242e-05 0.000308594)
(0.000537171 -0.000129891 0.000276318)
(0.000667267 -0.000281155 0.000264838)
(0.000383115 6.4701e-05 0.000392026)
(0.000384752 9.43833e-05 0.000399363)
(0.000422628 2.03784e-05 0.000313978)
(0.000413541 6.52014e-05 0.000325076)
(0.000457188 0.000165363 0.000434558)
(0.00047185 0.000163219 0.000563524)
(0.000480329 0.000165151 0.000515445)
(0.00050015 0.000144788 0.0004178)
(0.000557814 0.000183414 0.000456444)
(0.000539369 0.00020648 0.000571744)
(0.00046813 0.000162593 0.000562762)
(0.000503713 0.000164895 0.000599486)
(0.000511346 0.000189392 0.000417823)
(0.000490155 0.000174211 0.000567399)
(0.000492752 0.00017885 0.000574568)
(0.000597632 0.000217008 0.000690395)
(0.000582996 0.000210727 0.000544033)
(0.000443294 0.000128291 0.000390065)
(0.000626109 0.000197356 0.000436588)
(0.000493848 0.000110502 0.000387288)
(0.000636618 0.00015956 0.00038852)
(0.000554119 0.00019496 0.000444644)
(0.000562234 0.000178898 0.000524375)
(0.000748354 0.000286347 0.000535841)
(0.000592813 0.000203039 0.000417366)
(0.000569535 0.000173437 0.00044345)
(0.000795742 0.000285136 0.000469325)
(0.000594164 0.000260843 0.000490571)
(0.000633516 0.000221882 0.000615631)
(0.000589079 0.000192827 0.000654396)
(0.000695756 0.000244091 0.00061595)
(0.000702314 0.000252793 0.000592738)
(0.000364826 0.000136793 0.000497566)
(0.000363283 0.000132432 0.000501882)
(0.000246468 6.61782e-05 0.000466915)
(0.000363703 0.000131782 0.000543137)
(0.000446397 0.000118096 0.00068586)
(0.000411906 0.000109582 0.000639696)
(0.000384117 0.000134639 0.000519256)
(0.000408917 0.000146786 0.000548447)
(0.000393476 0.000141752 0.000596691)
(0.00036648 5.05832e-05 0.000667246)
(0.000316196 2.71602e-05 0.000604936)
(0.000376547 9.646e-05 0.000644692)
(0.000348673 8.27803e-05 0.00060816)
(0.000312286 2.41304e-05 0.000522981)
(0.000429318 0.000157507 0.000563081)
(0.000455673 0.000126756 0.000650843)
(0.000400414 0.000106232 0.000620365)
(0.000386254 -2.45432e-05 0.000650191)
(0.000487427 0.000133659 0.000753312)
(0.000365854 4.53493e-05 0.000652109)
(0.000473184 0.000180084 0.000560462)
(0.00052158 0.000194602 0.000610423)
(0.000467191 0.000137124 0.000678167)
(0.000439763 0.000160528 0.000587195)
(0.000513703 0.000194397 0.000600595)
(0.000516706 0.000115444 0.000738244)
(0.000519591 0.000128854 0.000810473)
(0.000412379 2.53913e-05 0.000711936)
(0.000374148 2.52105e-05 0.000625556)
(0.000406943 5.29813e-05 0.00067143)
(0.000465655 0.000112764 0.000705504)
(0.000394415 5.28095e-05 0.000627495)
(0.000517512 0.000203162 0.000631477)
(0.000522145 8.96285e-05 0.000782486)
(0.000599277 0.00017484 0.000875133)
(0.000274672 -1.61044e-06 0.000483418)
(0.000289575 3.8942e-05 0.000504807)
(0.000347656 0.000120598 0.00054676)
(0.000366668 7.22597e-05 0.00062098)
(0.000339094 1.28692e-05 0.000563936)
(0.000435707 7.84961e-05 0.000697481)
(0.00032786 -2.66573e-05 0.000554715)
(0.000334239 1.9398e-05 0.000559358)
(0.000421893 0.000129147 0.000664567)
(0.000343737 3.61004e-05 0.000582712)
(0.000294017 2.5968e-05 0.00049237)
(0.000359217 -9.77446e-06 0.000590002)
(0.000305495 3.11173e-05 0.00051032)
(0.000342496 3.57387e-05 0.000562368)
(0.000414274 2.59342e-05 0.000675979)
(0.000319972 7.97875e-05 0.000548108)
(0.00031724 4.53297e-05 0.000529756)
(0.000403171 -6.85827e-05 0.000614309)
(0.000479563 0.00011188 0.000760941)
(0.000410469 -4.25669e-05 0.000700038)
(0.000523244 5.09807e-05 0.000856981)
(0.000399425 -7.77518e-06 0.000673587)
(0.000420883 7.90247e-06 0.000702804)
(0.000533793 0.00014506 0.000780994)
(0.000424335 3.73153e-05 0.000679456)
(0.000483391 1.64259e-05 0.000772959)
(0.000515736 3.17881e-05 0.000843706)
(0.000517378 8.74575e-06 0.000826741)
(0.000416656 2.45708e-05 0.000665252)
(0.000468134 2.75301e-05 0.000742752)
(0.000416017 1.28674e-05 0.000657619)
(0.000471195 3.93086e-05 0.000743546)
(0.000561406 0.000171786 0.000726495)
(0.000557134 0.000196014 0.00065551)
(-2.10313e-05 -4.91189e-05 0.000160539)
(0.000574173 0.000142972 0.000810784)
(0.00049987 0.0001291 0.000703391)
(0.000643417 0.000237857 0.000698103)
(0.000586411 0.000222354 0.000625117)
(0.000628393 0.000217789 0.000709849)
(-2.52955e-05 -4.87809e-05 0.000159981)
(0.000562956 0.000173254 0.000752864)
(0.00056876 0.000200094 0.000681295)
(0.00062055 0.000223728 0.000719663)
(0.000569532 0.000162242 0.000802764)
(0.000632957 0.000164101 0.000942945)
(-2.29319e-05 -4.85684e-05 0.000157222)
(0.000470969 5.21197e-05 0.000762355)
(0.000435754 4.38513e-05 0.000727055)
(0.000467373 7.05831e-05 0.000732968)
(0.000535076 4.3786e-05 0.00081967)
(0.000466599 9.08173e-05 0.000724946)
(-2.54057e-05 -3.80568e-05 0.000160237)
(0.000582783 0.000225277 0.000692654)
(0.000608247 0.00011136 0.000870909)
(0.000694687 0.00020797 0.000957186)
(0.000670705 0.000222381 0.000797438)
(0.000747964 0.000267268 0.000670884)
(0.000816362 0.000310382 0.000657924)
(0.000655847 0.00018783 0.000858265)
(0.000617709 0.000176571 0.000771493)
(0.0006532 0.000270575 0.000632278)
(0.000688231 0.000248837 0.000691311)
(0.000668022 0.00021539 0.000781498)
(0.000723872 0.00024808 0.000826578)
(0.000764918 0.000295281 0.000804893)
(0.00068033 0.000212402 0.000864804)
(0.000696256 0.000165063 0.000967533)
(0.000569031 0.000129684 0.000810576)
(0.000640416 0.000132767 0.00100204)
(0.000515739 8.68404e-05 0.000781691)
(0.000602779 7.66275e-05 0.000916902)
(0.000749507 0.000247274 0.000950365)
(0.000621787 0.000194068 0.000798165)
(0.000669898 0.000175643 0.000954984)
(0.000555853 9.00939e-05 0.000897563)
(0.000570223 0.000141532 0.000821299)
(0.00075663 0.000132687 0.00106398)
(0.000651741 0.000132894 0.00101761)
(0.000599394 5.18467e-05 0.000964215)
(0.000590997 1.97979e-05 0.000939374)
(0.000481932 1.4938e-05 0.000804239)
(0.000470915 4.21027e-05 0.000755415)
(0.000614019 0.00011039 0.000892884)
(0.000630909 0.00012318 0.000985016)
(0.000586785 1.7291e-05 0.000920996)
(0.000605943 3.93408e-05 0.000951753)
(0.000608813 -3.00881e-05 0.000945605)
(0.000583014 4.75805e-05 0.000893075)
(0.00068734 0.000129986 0.00100024)
(-3.13891e-05 -4.31574e-05 0.000168639)
(0.000515086 -4.54795e-06 0.000841184)
(0.000466741 4.34642e-05 0.000740663)
(0.000672474 0.000160109 0.000989451)
(0.000708753 0.000202828 0.00105811)
(0.000585259 7.14752e-07 0.000976102)
(0.000739867 7.6432e-05 0.00116458)
(0.000542924 5.15459e-05 0.000850729)
(0.000665902 3.87448e-05 0.00102168)
(0.000534361 8.25212e-05 0.000846685)
(0.000511739 9.55395e-06 0.000784975)
(0.00064816 -7.27208e-05 0.000963238)
(0.000723565 5.31426e-05 0.00114386)
(0.000720476 3.66287e-05 0.00113271)
(0.000312598 -4.72333e-05 0.000448269)
(0.000236503 1.68062e-05 0.00036378)
(0.000255529 1.32619e-05 0.000369168)
(0.000240681 6.71944e-06 0.000365404)
(0.000176324 3.0774e-05 0.000312347)
(0.000221269 3.10853e-05 0.000353644)
(0.000276885 1.332e-05 0.000373582)
(0.000215342 4.54309e-05 0.000353209)
(0.000311662 3.53048e-05 0.000549999)
(0.000305875 4.8457e-05 0.000513083)
(-2.31433e-05 -4.18053e-05 0.000153769)
(-2.68173e-05 -4.38322e-05 0.000160674)
(-2.48127e-05 -4.04996e-05 0.000148815)
(-2.62974e-05 -3.68093e-05 0.000149678)
(0.000329009 3.72611e-05 0.000523152)
(0.000292699 7.14139e-05 0.000474279)
(0.000335488 2.4222e-05 0.000464671)
(0.000288579 4.43341e-05 0.000415192)
(0.000329321 1.21669e-05 0.000450271)
(0.000314156 3.64121e-05 0.000431458)
(-2.97458e-05 -3.61955e-05 0.000155081)
(0.000328566 1.49047e-05 0.000439443)
(-3.50769e-05 -2.88535e-05 0.000165166)
(-3.01603e-05 -3.45728e-05 0.000156148)
(0.000278016 3.82732e-05 0.000236529)
(0.00025364 3.80091e-05 0.000235049)
(0.000251659 2.38939e-05 0.000240038)
(-3.35039e-05 -3.4409e-05 0.000154169)
(-2.65562e-05 -3.83112e-05 0.000164922)
(-2.59465e-05 -4.18587e-05 0.00016145)
(-3.23626e-05 -3.37347e-05 0.000175359)
(-3.39086e-05 -4.22854e-05 0.000182991)
(-2.97441e-05 -3.0257e-05 0.000166944)
(-2.85977e-05 -2.61835e-05 0.000159722)
(-3.47084e-05 -3.44578e-05 0.000159285)
(0.000244223 5.67942e-05 0.000142793)
(0.000288873 5.73251e-05 0.000177235)
(0.000239836 4.17793e-05 0.000149536)
(0.000227945 5.61e-05 0.000144374)
(0.000256223 5.22687e-05 0.0001674)
(0.000289724 3.47361e-05 0.000192069)
(0.000279908 3.79328e-05 0.000227543)
(0.000319533 2.01258e-05 0.000248065)
(0.00031221 3.33409e-05 0.000222822)
(0.000274398 3.79194e-05 0.000237789)
(0.000292434 5.0187e-05 0.000181268)
(0.000305392 3.33397e-05 0.00019692)
(0.000280302 2.43945e-05 0.000309604)
(0.000259769 3.12399e-05 0.000318402)
(0.000295284 1.84909e-05 0.0003538)
(0.000247145 2.79883e-05 0.000330823)
(0.000269528 1.44793e-05 0.000337862)
(0.000225131 3.23463e-05 0.000318679)
(0.000323666 4.3743e-05 0.000374535)
(0.000338439 1.7912e-05 0.000332858)
(0.000316682 2.37766e-05 0.000309929)
(0.000273418 2.5495e-05 0.000299378)
(0.000306159 1.73918e-05 0.000397167)
(0.000305615 1.91327e-05 0.000348315)
(0.000329288 4.1137e-05 0.000428126)
(0.000331088 3.58045e-05 0.000302759)
(0.000351222 1.24094e-05 0.000357098)
(0.000342596 6.44011e-06 0.000297653)
(0.000360726 1.7469e-05 0.000351128)
(0.000361899 1.2889e-05 0.000320472)
(0.000334766 3.06649e-05 0.00040065)
(0.000349824 1.14649e-05 0.000432812)
(0.000368108 -9.4358e-06 0.00041342)
(0.000375925 2.98259e-05 0.000474058)
(0.000419146 1.78476e-05 0.000465063)
(0.00041247 -1.21553e-05 0.000399757)
(0.000400566 -1.64489e-05 0.000319153)
(0.000406399 8.74755e-06 0.000392468)
(0.000347858 1.34515e-05 0.000266267)
(0.000337863 9.93964e-06 0.000222271)
(0.000364908 1.78118e-05 0.000263637)
(0.000204147 5.58163e-05 0.000112164)
(0.000230997 5.45927e-05 0.000136878)
(0.000178504 5.50081e-05 8.69218e-05)
(0.000227042 5.99957e-05 0.000106564)
(0.000263808 4.45317e-05 0.00014381)
(0.000314738 2.99265e-05 0.000175314)
(0.000266843 5.54915e-05 0.00014004)
(0.000125126 4.58626e-05 5.20747e-05)
(0.00022593 6.86903e-05 7.04264e-05)
(4.37338e-05 1.66976e-05 4.22998e-05)
(7.26296e-05 3.04984e-05 3.86259e-05)
(0.000174778 6.59297e-05 3.63299e-05)
(0.000211872 6.19986e-05 9.41249e-05)
(0.000195969 3.67009e-05 3.16861e-05)
(0.000247354 5.41535e-05 9.77695e-05)
(0.000306495 4.21431e-05 7.22742e-05)
(0.000192534 6.0983e-05 3.66612e-05)
(0.000197179 4.94513e-05 4.95639e-05)
(0.000285632 5.65647e-05 6.19579e-05)
(0.00043963 -9.36131e-06 0.000335973)
(0.000479888 -2.72198e-05 0.000453949)
(0.000442771 -2.36587e-05 0.000385366)
(0.000488605 -1.86423e-05 0.000449701)
(0.000360618 2.4854e-05 0.000227672)
(0.000413039 -1.62121e-05 0.000292021)
(0.000381445 6.02808e-06 0.000254777)
(0.000390023 1.93775e-06 0.000279435)
(0.000358543 2.53209e-05 0.000183267)
(0.000391245 7.70317e-06 0.000247009)
(0.000471404 -4.05774e-05 0.000257103)
(0.000529321 -2.82331e-05 0.000349537)
(0.000530558 -6.65094e-05 0.000399736)
(0.000506172 -4.24267e-05 0.00032188)
(0.000451974 -1.68537e-05 0.000355393)
(0.000350817 3.07213e-05 0.000102798)
(0.000376188 1.73205e-05 0.000131914)
(0.000420093 -1.90958e-05 0.000197504)
(0.000391174 1.18399e-05 0.000137852)
(0.000396883 2.21374e-06 0.00016107)
(0.000315182 4.3942e-05 0.00010275)
(0.000366998 1.65249e-05 0.000121949)
(0.000515946 -3.0638e-05 0.000250052)
(0.000531583 -6.37226e-05 0.000285986)
(0.000592909 -9.01017e-05 0.000255992)
(0.00048941 -3.34749e-05 0.000218926)
(0.000453328 -1.18009e-05 0.000199655)
(0.000487627 -3.35215e-05 0.00019137)
(0.000280244 4.82452e-05 0.000477016)
(0.000295182 2.57067e-05 0.000485267)
(0.000330429 -2.4583e-05 0.00051268)
(0.000324067 1.08154e-05 0.000504884)
(0.000273963 6.21284e-05 0.00045927)
(0.000304697 2.97492e-06 0.000457586)
(0.000424084 -2.93965e-05 0.00062878)
(0.000293968 2.91878e-05 0.000481817)
(0.000321575 1.10669e-05 0.000492658)
(0.000363836 2.13252e-05 0.000559572)
(0.000352568 2.18507e-06 0.000499741)
(0.0003214 1.88395e-05 0.000461726)
(0.000349011 2.01017e-05 0.000505721)
(0.000448144 -1.06115e-05 0.00063865)
(0.000470068 2.02473e-05 0.000773378)
(0.000349027 4.35244e-05 0.00055579)
(0.000392199 4.50308e-05 0.00063347)
(0.000392718 5.97352e-05 0.000659345)
(0.000416052 5.62334e-06 0.000638051)
(0.000548337 -6.86712e-05 0.0007739)
(0.000500394 -9.00849e-05 0.000677673)
(0.000403519 7.78361e-05 0.000670444)
(0.000416546 6.91805e-06 0.000629965)
(0.00036504 2.68833e-05 0.000535368)
(0.000404794 2.12423e-05 0.00058931)
(0.000392397 1.23156e-06 0.000527772)
(0.000341741 2.07765e-05 0.000465063)
(0.000382321 1.71758e-05 0.000519972)
(-3.62523e-05 -2.9924e-05 0.000161146)
(0.00047038 -4.66171e-05 0.000614003)
(0.00042025 4.58533e-06 0.000537505)
(0.000468444 2.35016e-05 0.000620784)
(0.000393552 1.4275e-05 0.000589857)
(0.000448905 -8.53415e-06 0.000609174)
(0.000513246 -1.76517e-05 0.000688759)
(0.000442108 -2.35802e-05 0.000534108)
(0.000413994 -1.45605e-05 0.000451873)
(0.000415534 2.54934e-05 0.000539187)
(0.000625435 -3.12505e-05 0.000956022)
(0.000424371 3.56765e-05 0.000664476)
(-3.63985e-05 -2.57545e-05 0.000148924)
(0.000449954 1.44531e-05 0.000666503)
(0.000513437 1.77501e-05 0.000767965)
(0.000604732 -3.73727e-05 0.000875642)
(0.000590938 -6.86064e-05 0.000791935)
(0.000416459 9.98921e-06 0.000585525)
(-4.15222e-05 -2.1192e-05 0.00016069)
(0.000499308 -9.91897e-05 0.000552225)
(0.000533797 -5.68966e-06 0.00070813)
(0.000584329 -2.52234e-05 0.000848413)
(0.000495632 -2.76031e-06 0.000709435)
(0.000557593 1.30221e-05 0.000795059)
(0.000614102 -3.26297e-05 0.00081526)
(0.000522535 2.68998e-05 0.000708179)
(0.00068027 -9.63184e-05 0.000857105)
(0.00056804 -5.37434e-05 0.000708152)
(0.000619023 -2.35448e-05 0.000824538)
(0.000475904 4.26465e-05 0.000751493)
(0.000478239 -8.35016e-06 0.000711202)
(0.000584147 -3.70935e-05 0.000848904)
(0.000647019 -1.69843e-05 0.000979414)
(0.000620877 -8.98041e-05 0.000895252)
(0.000558826 9.47996e-05 0.000882202)
(0.000673245 -6.12125e-05 0.00102135)
(0.000624452 0.000122223 0.000998155)
(0.000582894 3.54751e-05 0.000909515)
(0.000564797 1.53067e-05 0.000851558)
(0.000674233 -4.95127e-05 0.000973382)
(0.000538906 -1.01913e-05 0.000811801)
(0.000574878 -2.89919e-05 0.000804147)
(0.000665312 -5.71959e-05 0.000909095)
(0.00077732 -9.05471e-05 0.00102697)
(0.000576795 -4.86605e-05 0.000804666)
(0.00064407 -8.91729e-05 0.000781309)
(0.000703179 -5.13941e-06 0.000948886)
(0.000477301 -1.6422e-05 0.00051478)
(0.000429439 -5.10725e-05 0.000489328)
(0.000502494 -6.67611e-05 0.00050848)
(0.000502025 7.41735e-06 0.000623816)
(0.000581459 -3.46807e-05 0.000695088)
(0.000533401 -1.33037e-05 0.000583696)
(0.000523458 -6.33375e-05 0.000506565)
(0.000537616 -6.22593e-05 0.00041775)
(0.000532846 -3.06024e-05 0.000494189)
(0.000617203 -7.88284e-05 0.00059751)
(0.000592986 -0.000105398 0.00048339)
(0.000620741 -7.44355e-05 0.000580034)
(0.000644179 -8.9227e-05 0.000716977)
(-4.42405e-05 -1.70126e-05 0.000158917)
(0.000567244 -7.16368e-05 0.000610836)
(0.000612715 -5.47144e-05 0.000704684)
(0.000747162 -0.000154339 0.000855995)
(0.000664005 -0.000114391 0.000687771)
(0.000688879 -5.90457e-05 0.000820532)
(-4.75321e-05 -1.23197e-05 0.000160219)
(0.000702859 -0.000143865 0.000684958)
(0.000701263 -0.000185353 0.00051515)
(-3.60344e-05 -3.42905e-05 0.000183478)
(0.000672653 -7.19766e-05 0.000698742)
(0.000577027 -7.51091e-05 0.000451235)
(-4.00909e-05 -2.69923e-05 0.000186722)
(0.000590666 -8.71343e-05 0.000386331)
(0.00058499 -5.96412e-05 0.000446675)
(-3.43179e-05 -3.41144e-05 0.000168731)
(0.000689989 -9.31179e-05 0.000382141)
(-3.74683e-05 -1.66342e-05 0.000170061)
(-4.07648e-05 -2.85713e-05 0.000183534)
(0.000645137 -0.000151537 0.000442959)
(0.000665788 -0.000152559 0.000382449)
(-4.19274e-05 -2.71455e-05 0.000183224)
(0.000653623 -7.57971e-05 0.000551977)
(0.000561167 -0.000389433 0.000211848)
(-4.54651e-05 -1.97101e-05 0.000178494)
(0.000606562 -0.000425008 0.000138312)
(0.000491488 -0.000364113 0.000132181)
(-4.44821e-05 -2.03636e-05 0.000182605)
(0.000421435 -0.000340355 0.000177434)
(0.000481761 -0.000384966 0.000152721)
(-4.83776e-05 -1.29724e-05 0.000191308)
(0.000361809 -0.000313548 0.000118961)
(0.000440905 -0.000322879 0.000231036)
(-3.72013e-05 -1.95526e-05 0.000164592)
(-3.37011e-05 -1.73242e-05 0.000151799)
(0.000478173 -0.000362282 0.000130319)
(-3.93363e-05 -2.37328e-05 0.00015425)
(-4.11977e-05 -1.81356e-05 0.000168571)
(0.000300845 -0.00026899 0.000155285)
(-3.96436e-05 -1.57635e-05 0.000153109)
(-4.35722e-05 -1.31388e-05 0.000166941)
(0.000365375 -0.000327184 0.000149016)
(-4.21625e-05 -1.25345e-05 0.000151264)
(0.000266468 -0.000247089 0.000123734)
(0.000174074 -0.000183675 9.72397e-05)
(0.000268468 -0.000255207 0.000150506)
(0.000194165 -0.000180512 0.000129159)
(0.000162327 -0.0001613 0.000106016)
(0.000228608 -0.000196887 0.00013776)
(0.000166629 -0.000166161 0.00010252)
(0.000300993 -0.00023365 0.000202293)
(0.000337538 -0.000272167 0.000151511)
(0.000363915 -0.000350699 7.30175e-05)
(0.000509764 -0.00041837 9.34187e-05)
(0.000362825 -0.00029492 0.000130301)
(0.000204611 -0.000207452 7.43784e-05)
(0.000350073 -0.000321247 0.000109772)
(0.000254001 -0.000216064 0.000137987)
(0.000227192 -0.000217201 0.000139885)
(0.000259026 -0.000205689 0.000171252)
(0.000312201 -0.000250687 0.000128905)