/*--------------------------------*- C++ -*----------------------------------*\
  =========                 |
  \\      /  F ield         | OpenFOAM: The Open Source CFD Toolbox
   \\    /   O peration     | Website:  https://openfoam.org
    \\  /    A nd           | Version:  7
     \\/     M anipulation  |
\*---------------------------------------------------------------------------*/
FoamFile
{
    version     2.0;
    format      ascii;
    class       volScalarField;
    location    "3.75";
    object      p;
}
// * * * * * * * * * * * * * * * * * * * * * * * * * * * * * * * * * * * * * //

dimensions      [0 2 -2 0 0 0 0];

internalField   nonuniform List<scalar> 
382612
(
0.00217119
0.0020183
0.00206848
0.00207752
0.00188597
0.00234591
0.00219679
0.00203627
0.00186549
0.00179519
0.00190681
0.00189256
0.00190675
0.00197443
0.00199753
0.00216771
0.00201011
0.0021533
0.0021
0.00212992
0.00215889
0.00219737
0.00223607
0.00230919
0.0022828
0.00225141
0.00222426
0.00278101
0.00283885
0.00288663
0.0029262
0.00270724
0.00269596
0.00268219
0.00266027
0.00254555
0.00213423
0.00215639
0.00224366
0.002289
0.00232967
0.00236674
0.00232677
0.00230352
0.00227387
0.00223947
0.00215209
0.00217128
0.00219921
0.00222288
0.00235169
0.00232217
0.0022892
0.00225482
0.00219717
0.0021002
0.00211096
0.00213229
0.00221713
0.00215344
0.00224671
0.00222427
0.00225769
0.00274294
0.00225656
0.00204351
0.00241903
0.00260547
0.0027121
0.00289663
0.00292255
0.00292816
0.00293172
0.00319518
0.00318214
0.00316452
0.00313193
0.00299665
0.00271746
0.00286225
0.00291817
0.00295444
0.00297981
0.00336432
0.00336997
0.00337405
0.00334005
0.0031023
0.00236325
0.00255135
0.0025992
0.00262314
0.00263912
0.00281781
0.00283143
0.00284664
0.00282883
0.00265947
0.00216339
0.00217887
0.0022389
0.00226662
0.00229627
0.00232968
0.00221645
0.00220304
0.00218832
0.00218083
0.00200289
0.002039
0.00207006
0.00209413
0.00233169
0.00229583
0.00225837
0.00222263
0.00215742
0.00187428
0.00192645
0.00196621
0.00199274
0.00201147
0.00218068
0.00214184
0.00210313
0.00206536
0.00197026
0.001741
0.00190037
0.00211291
0.00215208
0.00217016
0.00217923
0.00240143
0.00240737
0.00241573
0.00241705
0.00248479
0.00244869
0.00236991
0.00234722
0.00232895
0.00231555
0.00193633
0.00192112
0.00190267
0.00188265
0.00205282
0.00208376
0.00210764
0.00212606
0.00214073
0.00212208
0.00210203
0.00208617
0.00211548
0.00203011
0.0019734
0.00197597
0.00198854
0.00199968
0.0019169
0.00206005
0.00207653
0.00177709
0.00184576
0.00185851
0.00217928
0.00240522
0.00174071
0.00178055
0.00208627
0.00176804
0.00182368
0.00179931
0.00177264
0.00177802
0.00178931
0.0017952
0.00241263
0.00242535
0.00244468
0.00245884
0.0023957
0.00183354
0.00182047
0.0018184
0.00182427
0.00183053
0.00228883
0.00230831
0.00233797
0.00236681
0.0023652
0.00201461
0.00219302
0.0022231
0.00222626
0.00222378
0.00222341
0.0019484
0.00194967
0.00195361
0.001966
0.00153542
0.00154718
0.00156045
0.00156659
0.0020442
0.00203796
0.00202974
0.00202389
0.00205446
0.00153914
0.00152767
0.00203131
0.001934
0.00152745
0.00176679
0.00198733
0.00165867
0.00196725
0.00194257
0.00168063
0.00146799
0.00183137
0.00191222
0.001764
0.00156578
0.00180117
0.00193337
0.00197208
0.00206015
0.00199849
0.00186484
0.00177174
0.0020541
0.00194496
0.00201673
0.00210397
0.00206627
0.00204927
0.00217615
0.00221977
0.00201328
0.00198433
0.00203759
0.00205279
0.00207381
0.002097
0.00233365
0.0023269
0.00231265
0.00226421
0.00260103
0.0025784
0.00255964
0.00254165
0.00309041
0.00307687
0.00306309
0.00302896
0.00285237
0.00268299
0.00259417
0.00262938
0.00265154
0.00265954
0.00266874
0.00228431
0.00228428
0.00227541
0.00225697
0.00227125
0.00283791
0.00281285
0.00282365
0.00283752
0.00284865
0.00270322
0.00268635
0.00265995
0.00263825
0.00265341
0.00297783
0.0029463
0.00294865
0.00296539
0.00297925
0.00325084
0.00324957
0.00324643
0.00323034
0.00313095
0.00302664
0.00318727
0.00322813
0.00324693
0.00325808
0.00376225
0.00376674
0.00377158
0.00373878
0.0034807
0.00259634
0.00266015
0.00268278
0.00270996
0.00273289
0.00278318
0.00277126
0.00275494
0.0027216
0.00256701
0.00229214
0.00241049
0.00245692
0.00249057
0.00251346
0.00291128
0.00292795
0.00295283
0.0029513
0.00278593
0.00186085
0.0019034
0.00191995
0.00194606
0.0019701
0.00220444
0.00225182
0.0022738
0.00229151
0.0023035
0.00207949
0.00205659
0.00202728
0.00200411
0.00195157
0.00256175
0.00263899
0.00262801
0.00259856
0.00257599
0.00178308
0.00176752
0.0017479
0.00173764
0.00173494
0.00238036
0.00236285
0.00233262
0.00230105
0.00227961
0.00164527
0.00164158
0.00163703
0.00164805
0.00172599
0.00178248
0.00173536
0.00173354
0.00174581
0.00175682
0.00211583
0.00213606
0.00216461
0.00219805
0.00225532
0.00174979
0.0016564
0.00164543
0.00165188
0.00165699
0.0021334
0.00214803
0.00216936
0.00219128
0.00219222
0.00194825
0.00205658
0.00206755
0.00207078
0.00206841
0.00206609
0.00189743
0.00189765
0.00189865
0.00190573
0.00167298
0.00167314
0.00167678
0.00167805
0.00197638
0.00197738
0.00197716
0.00197673
0.00198487
0.00168611
0.00190293
0.00184693
0.00183754
0.00183838
0.00183855
0.00173792
0.00185656
0.00206593
0.00200499
0.00198168
0.00196836
0.00195926
0.001867
0.00186984
0.00187214
0.0018705
0.00202451
0.00202124
0.00201606
0.00201198
0.00202696
0.00202934
0.00203242
0.00203404
0.00190757
0.00191187
0.00191389
0.00191346
0.00203724
0.00204481
0.00205408
0.00206468
0.00210022
0.00191079
0.0020383
0.00207635
0.00202278
0.00172018
0.00194713
0.00194819
0.00170734
0.0016494
0.0019345
0.00193715
0.00162897
0.00210293
0.00212982
0.00206676
0.00200146
0.00186279
0.00202661
0.00181952
0.00185486
0.0018422
0.00196557
0.0020492
0.00199398
0.00198041
0.00197746
0.0019768
0.00197124
0.0019682
0.00196383
0.00196466
0.00199157
0.00217045
0.00215703
0.00214493
0.00214013
0.00213989
0.00213106
0.00213435
0.00214094
0.0021551
0.00219467
0.00205068
0.00205713
0.00205393
0.00205211
0.00204845
0.00204592
0.0020345
0.00203272
0.00203031
0.00203008
0.00189829
0.00190171
0.00190334
0.00190321
0.00198933
0.00199194
0.00199498
0.00199759
0.00200807
0.00188782
0.00204034
0.00200894
0.00200306
0.00199931
0.00199585
0.00196914
0.00200537
0.00198017
0.0019578
0.00195975
0.00196462
0.00196732
0.00208938
0.00208871
0.00208659
0.00208433
0.00209348
0.0021985
0.00220372
0.00219869
0.0021953
0.00219439
0.00211995
0.00211927
0.00211948
0.00212653
0.00216169
0.00216826
0.00214922
0.00214416
0.00214066
0.00213819
0.00202515
0.00202313
0.00202036
0.00201919
0.00205364
0.0020506
0.0020456
0.00204184
0.00204878
0.00205163
0.00205507
0.00205744
0.002044
0.00204342
0.00204384
0.0020433
0.00217342
0.00216863
0.00216189
0.00215755
0.00217582
0.00206102
0.00206324
0.00208518
0.00212859
0.00199162
0.00203296
0.00205185
0.00196936
0.00179212
0.00197199
0.00202209
0.00189149
0.00216543
0.00212042
0.00208526
0.00211825
0.00202765
0.00205512
0.00212723
0.00208015
0.00215604
0.00209847
0.00206553
0.00203948
0.00203811
0.00204236
0.0020454
0.00215721
0.00215443
0.00214948
0.00214333
0.00214372
0.00222721
0.00222938
0.00222804
0.00222758
0.00222755
0.00218471
0.00218535
0.00218555
0.00218641
0.00220007
0.00226999
0.00226373
0.00226394
0.00226363
0.00226328
0.00225335
0.00224694
0.00223796
0.00222888
0.0022309
0.00213343
0.00211901
0.00211552
0.00211165
0.00210748
0.00221107
0.0022046
0.00219628
0.00218645
0.00217913
0.00210478
0.00207335
0.00207272
0.00207498
0.00207449
0.00207338
0.00207269
0.00207055
0.00206792
0.00207147
0.00209288
0.00209362
0.00209489
0.00209591
0.00206432
0.00206516
0.00206624
0.00206647
0.00206784
0.00209937
0.0021097
0.00208078
0.00209559
0.00211993
0.00200382
0.00203132
0.00209418
0.00210146
0.00216545
0.0021147
0.00209009
0.00216922
0.00204537
0.00203207
0.00213701
0.00221635
0.00209911
0.00206317
0.0021459
0.00215938
0.00218525
0.00219577
0.00218693
0.00212593
0.00204523
0.00204771
0.00205311
0.00205625
0.0020579
0.00218373
0.00218424
0.00218652
0.00219216
0.00219655
0.00225255
0.00225755
0.00225646
0.00225603
0.00225615
0.00221789
0.00221412
0.00220823
0.00220118
0.00220395
0.0022856
0.00230109
0.00230591
0.00230737
0.00230808
0.00236949
0.00236792
0.00236713
0.00236558
0.00234802
0.00229236
0.00229396
0.00230107
0.00230874
0.0023139
0.00238405
0.00238339
0.00238182
0.00237543
0.00235591
0.00230415
0.00231292
0.00231904
0.00232338
0.00232595
0.0021875
0.0021842
0.00217925
0.00217122
0.00215385
0.00210166
0.00208669
0.00209632
0.00209974
0.00209916
0.00209721
0.00211566
0.00211296
0.00210908
0.0021051
0.0021533
0.00215722
0.00216257
0.00216909
0.00211632
0.00211399
0.0021092
0.00210023
0.00208323
0.00214104
0.00222129
0.00224558
0.00225469
0.00226248
0.00226894
0.00227924
0.00227149
0.00226371
0.00225569
0.00222398
0.00212629
0.00208641
0.00211704
0.00212552
0.00213137
0.00213812
0.00218877
0.00217709
0.00216398
0.00215367
0.00219127
0.00220322
0.00221382
0.0022219
0.00218544
0.00217416
0.00216342
0.00214872
0.00209904
0.00216125
0.00221723
0.0021342
0.00208882
0.00216017
0.0022248
0.00214321
0.00209656
0.00216228
0.00220714
0.00212228
0.00217684
0.00228664
0.00225688
0.00210887
0.00214924
0.00227765
0.00255694
0.00225274
0.00220359
0.00244572
0.00214225
0.00208788
0.00201433
0.00195431
0.00174795
0.00189075
0.00192662
0.00182376
0.00181682
0.00195157
0.00200065
0.00189063
0.00188761
0.00201405
0.00197658
0.00177001
0.0020262
0.00197997
0.00205357
0.00203114
0.0021235
0.00207366
0.00205926
0.00205532
0.0020542
0.00203667
0.00203842
0.00204364
0.00205601
0.00206829
0.00214083
0.00213358
0.00212447
0.00212004
0.0021183
0.00198301
0.0019824
0.00198035
0.00197541
0.00197031
0.00199086
0.00196301
0.00195213
0.0019488
0.00194813
0.00202482
0.00202505
0.00202695
0.00203223
0.00203966
0.00209132
0.00208595
0.0020845
0.00208579
0.00208692
0.00214447
0.00214323
0.00213924
0.00213176
0.00212585
0.0022011
0.00221785
0.00222972
0.00223361
0.00223451
0.00232521
0.00232287
0.00232029
0.00231695
0.00230611
0.00236269
0.00237929
0.00238473
0.00238786
0.0023897
0.00247124
0.00246751
0.00246235
0.00245377
0.00243052
0.00245547
0.002485
0.0024965
0.00250269
0.00250652
0.00241156
0.00240394
0.00239357
0.00238321
0.00236991
0.00238387
0.00241877
0.00243139
0.00243671
0.00243968
0.0023608
0.0023594
0.00235543
0.00234476
0.00230693
0.00234851
0.00239812
0.00241268
0.0024156
0.00241535
0.00220734
0.00219573
0.00218272
0.00217467
0.00217334
0.00219197
0.00220613
0.002219
0.00218243
0.00217183
0.00216
0.002145
0.00211097
0.00216965
0.00218252
0.00219144
0.00220251
0.00221161
0.00228799
0.00228642
0.002283
0.00227744
0.00226418
0.00223495
0.00226839
0.00227955
0.00228675
0.00229231
0.00217991
0.00216914
0.00215733
0.00215064
0.00210504
0.00211668
0.00212826
0.00213968
0.00212894
0.00212047
0.00211229
0.00210344
0.00212789
0.00213102
0.0021386
0.00214597
0.00226751
0.00226922
0.00226952
0.00226336
0.00223917
0.0021267
0.00208284
0.00207835
0.00211889
0.0021168
0.00206279
0.00213051
0.00221862
0.00223634
0.0021316
0.00215062
0.00231889
0.00212156
0.00208353
0.00213585
0.00214805
0.00217439
0.00209872
0.00218419
0.00233014
0.00217183
0.00209344
0.00206689
0.00211667
0.0018539
0.00194746
0.00193455
0.00176439
0.00198102
0.00205528
0.00207758
0.00218282
0.00240604
0.00251861
0.00253346
0.00249305
0.0023921
0.00224827
0.00208487
0.00191685
0.00172976
0.00154562
0.00145338
0.00146056
0.00146592
0.0014647
0.0014618
0.00164526
0.00164369
0.00164397
0.00165103
0.00166452
0.00176578
0.00178514
0.0017955
0.00179672
0.00179534
0.00192982
0.00192721
0.00192509
0.00192713
0.00192845
0.00197063
0.00199636
0.00199577
0.0019937
0.00199307
0.00202438
0.00202482
0.00202223
0.00201126
0.00197849
0.00213867
0.00214355
0.00214494
0.00214789
0.00215078
0.00222651
0.00222518
0.0022246
0.00222257
0.00219528
0.0022094
0.00224765
0.00226184
0.00226704
0.00226855
0.00234289
0.00233699
0.00232956
0.00232266
0.00231467
0.00235604
0.00238659
0.0024019
0.00240925
0.00241246
0.00251758
0.00251274
0.00250698
0.00249891
0.00247028
0.00250972
0.00254587
0.00255606
0.00256199
0.00256649
0.00249319
0.00248576
0.00247592
0.00246452
0.00243881
0.00243623
0.00247111
0.00248202
0.00248698
0.00248965
0.00236679
0.00235663
0.0023443
0.00233527
0.00233358
0.00237953
0.00240016
0.00240892
0.00241564
0.00242067
0.00236607
0.00236568
0.00236391
0.0023583
0.00233902
0.00235338
0.00235509
0.00235971
0.00236425
0.00236754
0.00225093
0.00224929
0.00224662
0.00224453
0.00225153
0.0021681
0.00216668
0.00217044
0.00217437
0.00217676
0.00217027
0.00216727
0.00216414
0.00216259
0.00216961
0.00208355
0.00204426
0.00204465
0.00205071
0.0020565
0.00206172
0.00209408
0.00208782
0.00208008
0.00207534
0.00211569
0.0021187
0.00212421
0.0021289
0.0021004
0.00209552
0.00209067
0.00208375
0.0020718
0.00211928
0.00213242
0.00209336
0.00208946
0.00211478
0.00207563
0.00205783
0.00208437
0.00212217
0.00222794
0.00211907
0.00199371
0.00191144
0.00197602
0.00201389
0.00199107
0.00195098
0.00192381
0.00196031
0.00199323
0.00199366
0.00205773
0.00204143
0.00206507
0.00210181
0.00199069
0.00201424
0.00201561
0.00196911
0.00183597
0.00209193
0.00228249
0.00245445
0.00254352
0.00253031
0.00241475
0.00220597
0.00194236
0.00168503
0.00143054
0.00120719
0.00112904
0.00114426
0.00114581
0.00114029
0.00113426
0.00127294
0.00127095
0.00127047
0.00127535
0.00128602
0.00149784
0.00152193
0.00152945
0.00152568
0.00151951
0.00167866
0.00167606
0.00167433
0.00167636
0.00167843
0.00185617
0.00185496
0.0018554
0.00185776
0.00185991
0.00193599
0.00193155
0.00192593
0.00192093
0.00190926
0.00209305
0.00209814
0.00210357
0.00210995
0.00211475
0.00215216
0.00214596
0.00213813
0.00212971
0.00211251
0.0022545
0.00225993
0.00226644
0.00227406
0.00227991
0.00240748
0.0024043
0.00239774
0.0023839
0.00235231
0.00242225
0.00244058
0.0024509
0.00245989
0.00246679
0.00251549
0.0025114
0.00250544
0.00249499
0.00246459
0.00243434
0.00245312
0.00245912
0.00246386
0.00246758
0.00243307
0.00242934
0.00242461
0.00242111
0.00241686
0.0023642
0.00237727
0.00238553
0.00239461
0.00240178
0.00254733
0.00254383
0.00253901
0.00252814
0.00248791
0.00250329
0.00249658
0.00250308
0.00246
0.00242353
0.0024638
0.00247491
0.00247904
0.00248127
0.00238739
0.00238392
0.00237824
0.00237062
0.00235985
0.00238669
0.00239845
0.00240468
0.00240732
0.00240879
0.00238585
0.00238528
0.00238361
0.00237829
0.00237159
0.00232021
0.00232947
0.00233219
0.00233332
0.00233387
0.00218704
0.002184
0.00218061
0.00218192
0.00220345
0.00226945
0.00226464
0.00225856
0.00225491
0.00225317
0.00216731
0.00216899
0.00217255
0.00218154
0.00221233
0.00208581
0.00205832
0.00205506
0.0020552
0.00205564
0.00205718
0.00206168
0.00206085
0.00206026
0.00206531
0.00202701
0.00203221
0.00203675
0.00203985
0.00207432
0.00207415
0.00207358
0.00206885
0.00205764
0.00202701
0.00209377
0.0021117
0.00204466
0.00204
0.00208318
0.00218585
0.00213291
0.00210996
0.00212227
0.00212736
0.00212756
0.00212669
0.00202288
0.00202228
0.00202085
0.0020218
0.00204375
0.00203408
0.00205352
0.00205336
0.00204869
0.00204417
0.00204596
0.00205114
0.00205677
0.00205701
0.00203928
0.00199427
0.00199772
0.00200294
0.00200392
0.00200372
0.00200449
0.00200766
0.00201127
0.00201379
0.00201101
0.0020055
0.00200706
0.0020118
0.00201532
0.00204006
0.00203856
0.0020367
0.0020328
0.00203032
0.00202819
0.00211973
0.00206535
0.00203617
0.00201845
0.00192322
0.00199703
0.00197188
0.00186051
0.00184327
0.00194374
0.00189128
0.00175508
0.00185828
0.0019247
0.00199718
0.00205061
0.00189688
0.00191921
0.00195097
0.0019351
0.00195155
0.00197753
0.00202033
0.00200177
0.00204469
0.00203775
0.00200153
0.00197894
0.00180577
0.00195248
0.0020093
0.00195073
0.00207489
0.00205612
0.00199304
0.00199243
0.0019418
0.00197255
0.00195536
0.00196429
0.0015306
0.00180484
0.00178198
0.00142591
0.00138911
0.00176211
0.00185796
0.00174909
0.00162254
0.00183731
0.00176893
0.00150094
0.00163723
0.00183851
0.00190464
0.0016613
0.00153594
0.00183667
0.00181899
0.00146433
0.00144393
0.00180406
0.00187265
0.0015714
0.00149146
0.00184539
0.00188078
0.00152457
0.00162158
0.00164136
0.0015763
0.00158348
0.00151139
0.00150334
0.00150555
0.00150535
0.00165729
0.00165576
0.00165411
0.00166308
0.00172755
0.00209548
0.00200626
0.0019785
0.00196255
0.00195292
0.00167788
0.00167479
0.00167138
0.00168347
0.00177631
0.00207708
0.00204427
0.00202032
0.00200563
0.00199742
0.00187866
0.00186856
0.00185789
0.00186171
0.00193553
0.00178985
0.00170434
0.00156057
0.00156987
0.0015136
0.00150532
0.00150612
0.00150519
0.00170982
0.00171148
0.00171202
0.00171459
0.00175188
0.00201666
0.00196236
0.00194072
0.00193191
0.001928
0.00178163
0.0017788
0.00177546
0.00178257
0.001844
0.00206973
0.00205529
0.00203892
0.00202936
0.0020241
0.0018709
0.00186733
0.00186428
0.00187497
0.00195647
0.00187401
0.00182803
0.00173837
0.00173404
0.00170452
0.00165053
0.00164245
0.00164415
0.00164634
0.00186881
0.00187265
0.00188095
0.00189775
0.00191374
0.00196061
0.00193741
0.0019223
0.0019162
0.00191411
0.00186106
0.00185909
0.00185637
0.00185801
0.00188561
0.00193275
0.00189639
0.00189301
0.00189453
0.0018956
0.00192615
0.00204715
0.00198428
0.00190668
0.00174544
0.00168134
0.00166204
0.00166252
0.00166451
0.00166506
0.00189293
0.00189336
0.00189934
0.00191557
0.00193298
0.00191271
0.00190016
0.00189243
0.0018918
0.00189372
0.00174751
0.00174887
0.00174787
0.00174065
0.00173157
0.00167699
0.00164793
0.00163555
0.00163297
0.00163319
0.00142842
0.00143014
0.00143041
0.00142555
0.00141997
0.0013064
0.00129308
0.00128199
0.00127761
0.00127605
0.00125536
0.00125586
0.0012583
0.00126785
0.00128999
0.00107241
0.00106078
0.00105354
0.00105243
0.00105347
0.00104795
0.00105194
0.00105889
0.00106783
0.00107484
0.00092865
0.000891346
0.000885774
0.000885048
0.000885008
0.000912649
0.00090931
0.00090738
0.000911025
0.000940783
0.0012123
0.0012318
0.00123479
0.00122779
0.00121928
0.00131189
0.00130822
0.00130463
0.00130604
0.0013207
0.0015301
0.00152515
0.00152856
0.001534
0.00153847
0.0017917
0.0017971
0.00180083
0.00179185
0.00174497
0.00191467
0.00193978
0.00194286
0.00194362
0.00194548
0.00200577
0.00200918
0.00200992
0.00199794
0.0019529
0.00208864
0.00209986
0.00210447
0.00210774
0.00211137
0.00228014
0.00227869
0.00227608
0.00226612
0.00223086
0.002186
0.00219912
0.00220706
0.00221028
0.00221062
0.00233943
0.0023335
0.00232824
0.00232585
0.00232734
0.00225055
0.00225671
0.00226217
0.0022644
0.00226494
0.00230041
0.00230076
0.00230105
0.00229807
0.00228546
0.00221473
0.00219986
0.00219913
0.00220075
0.00220207
0.00230828
0.00230769
0.00230942
0.00231762
0.0023264
0.00232157
0.00229524
0.00228741
0.00228668
0.00228763
0.00215779
0.0021566
0.00215466
0.00215342
0.0021683
0.00211715
0.00210286
0.00210298
0.00210391
0.00210408
0.00219559
0.0022016
0.00221347
0.002235
0.00226224
0.00225167
0.0022347
0.00221562
0.00220351
0.00219673
0.00216484
0.00216775
0.00217464
0.00219011
0.0022171
0.00221886
0.00219013
0.00218574
0.00218453
0.00218525
0.00206149
0.00206046
0.00205962
0.00206193
0.00207934
0.00195553
0.00194431
0.00196423
0.00197164
0.00197832
0.00198302
0.00203228
0.00203413
0.0020351
0.00202265
0.00208592
0.00208393
0.00208116
0.00207948
0.0020382
0.00203639
0.00203567
0.00203864
0.00205698
0.00207925
0.00202757
0.00203714
0.00200462
0.00197342
0.00217639
0.00207401
0.00200721
0.0019808
0.0018674
0.00195017
0.00192724
0.00184817
0.00186859
0.00189234
0.00196296
0.00196127
0.00193479
0.00197267
0.00198742
0.00193991
0.00189132
0.00195591
0.00197695
0.00193088
0.0019079
0.00194379
0.00191547
0.00188564
0.00190616
0.00170002
0.00159048
0.00151722
0.00149923
0.0015336
0.00159338
0.00163722
0.00162201
0.0015293
0.00137084
0.00116504
0.000971659
0.000806888
0.000669192
0.000703295
0.000685703
0.000684587
0.00068675
0.000688492
0.000888882
0.000899781
0.000911462
0.000915314
0.000899506
0.000970414
0.000957589
0.000950887
0.000947328
0.000945703
0.00108877
0.00109859
0.00110858
0.00110744
0.00107841
0.00114961
0.00111621
0.00111591
0.00112475
0.00113302
0.00145152
0.00146109
0.00147001
0.00146237
0.00141275
0.00154045
0.0015383
0.00154133
0.00154784
0.00155274
0.00178874
0.00178301
0.00177629
0.00177117
0.00177056
0.00174676
0.00177076
0.00177609
0.0017769
0.00177649
0.00176443
0.00176987
0.00177315
0.00176688
0.00174664
0.00196734
0.00195542
0.00195609
0.00196455
0.0019725
0.0021122
0.00210874
0.00210677
0.00211043
0.00212563
0.00201187
0.00202299
0.00202646
0.0020254
0.00202382
0.00197192
0.00197386
0.00197524
0.00197506
0.00198521
0.00218326
0.00217372
0.00216328
0.00216279
0.00216586
0.00220889
0.00220764
0.00220905
0.00221987
0.00224765
0.00206589
0.00205882
0.00205835
0.00205837
0.00205737
0.00210379
0.00210481
0.00210605
0.00210723
0.00210822
0.00207051
0.00203591
0.00202946
0.00202867
0.00202861
0.00221544
0.00222093
0.00223178
0.00224914
0.00225902
0.00202658
0.00202014
0.00202151
0.00202157
0.00202106
0.00199942
0.00199859
0.00199523
0.00198795
0.00198972
0.00194327
0.00194149
0.00195119
0.00195866
0.00196269
0.00199785
0.00199351
0.0019861
0.00197267
0.00195454
0.00181682
0.00184139
0.00185832
0.00186755
0.00187216
0.00203897
0.00203471
0.00202776
0.00201087
0.00195969
0.00214144
0.00214334
0.0021353
0.0021292
0.00212625
0.00202611
0.00203395
0.00204177
0.00203944
0.00197575
0.00197824
0.0019831
0.00198686
0.00200957
0.00200355
0.00199601
0.00198987
0.00199284
0.0019998
0.001996
0.00199086
0.002208
0.00220862
0.00221118
0.00220794
0.00215509
0.00193788
0.00199787
0.00203106
0.00192473
0.001872
0.00201659
0.00200653
0.00187581
0.00187547
0.00203176
0.00205129
0.00205579
0.00205495
0.00205514
0.00192239
0.00191734
0.00190784
0.0018961
0.00206456
0.00207306
0.00206673
0.00206244
0.00192393
0.00192223
0.00191825
0.00190786
0.00189789
0.00215178
0.00209563
0.00208372
0.00207383
0.00206835
0.00207975
0.00207938
0.00208013
0.00208401
0.00219419
0.00192549
0.00199452
0.00198241
0.00198219
0.00198409
0.0019846
0.0020079
0.00201413
0.00202068
0.00201419
0.00196066
0.00197752
0.00198044
0.00198241
0.00197631
0.00197474
0.00197235
0.00196777
0.00194476
0.00183738
0.00182712
0.00199604
0.0019993
0.00196945
0.00192712
0.00194806
0.0019506
0.0018977
0.00207524
0.0020065
0.00195869
0.00201566
0.00202374
0.0019522
0.00197163
0.00193617
0.00186158
0.0017226
0.00154661
0.0013618
0.0012272
0.00113891
0.00111311
0.00112768
0.00114148
0.00111574
0.00104103
0.000924116
0.000818474
0.000683544
0.000598199
0.000510074
0.000562182
0.000559435
0.000552708
0.000542779
0.000534498
0.000554133
0.000552497
0.000552926
0.000560539
0.00059608
0.000736685
0.00074873
0.000743492
0.000731272
0.000719643
0.000778391
0.000776542
0.000775326
0.000780754
0.000803462
0.0010307
0.00100012
0.000989399
0.000986736
0.00098637
0.00119705
0.00120583
0.00121339
0.00121064
0.00118894
0.00139801
0.00136636
0.00136258
0.00136967
0.00137769
0.00162189
0.0016199
0.00161922
0.00162509
0.00164563
0.00152897
0.00153228
0.00153213
0.00152915
0.00152696
0.0015047
0.00151094
0.00151592
0.00151734
0.00153123
0.00182846
0.00180012
0.00178689
0.00178716
0.00179193
0.00191347
0.00191354
0.001917
0.0019325
0.0019733
0.00177142
0.00177119
0.00176988
0.00176691
0.00176441
0.0017548
0.00175766
0.00176081
0.00176613
0.00179136
0.00202173
0.00200585
0.00198794
0.00198012
0.00197855
0.00202972
0.00203238
0.00204118
0.00206307
0.00209113
0.00218557
0.00213978
0.00211963
0.00211172
0.00210911
0.00185578
0.00185605
0.00185277
0.00184517
0.00185035
0.00188889
0.00188431
0.00189107
0.00189518
0.00189636
0.00194124
0.00194002
0.00193842
0.00193785
0.00194339
0.00197502
0.00198054
0.00198165
0.00198151
0.00198144
0.00204137
0.00204159
0.00204177
0.00203957
0.00202512
0.00197975
0.00198823
0.00199006
0.00199028
0.00198995
0.00195379
0.00194711
0.00193564
0.00191691
0.00189025
0.00189387
0.00188919
0.00189592
0.00190246
0.00190655
0.00207058
0.0020778
0.00208911
0.00209951
0.00208447
0.00195806
0.00200889
0.00200926
0.00200271
0.00199699
0.00195734
0.00195763
0.0019562
0.00195167
0.00192971
0.00204792
0.00203602
0.00202958
0.00202495
0.00202334
0.00195667
0.00179703
0.00199686
0.00193956
0.00184436
0.00216919
0.00176875
0.0018784
0.00230191
0.00181449
0.00195462
0.00268674
0.00184801
0.00214449
0.00203004
0.00244111
0.00193943
0.00174748
0.0014281
0.00115755
0.000930627
0.000832184
0.000812791
0.000831283
0.000830912
0.000772208
0.000669532
0.000566126
0.000469826
0.000417757
0.000363212
0.000422633
0.000421953
0.000416769
0.000411188
0.000407075
0.000362732
0.000370419
0.000377564
0.000382588
0.000394004
0.000585213
0.00055848
0.000540483
0.000531894
0.000528272
0.00072005
0.000727081
0.000738234
0.000756103
0.000793253
0.000815765
0.000786926
0.000780116
0.000772514
0.000764862
0.00106502
0.00106841
0.00107927
0.00110686
0.00115344
0.00136996
0.00131298
0.00129172
0.0012822
0.00127744
0.00131166
0.0013173
0.00132337
0.00133079
0.00136514
0.00167292
0.00163551
0.00161166
0.0016035
0.00160224
0.00173972
0.00174259
0.00175004
0.00176849
0.00181223
0.00151131
0.00148719
0.00148553
0.0014865
0.00148688
0.00161733
0.00161814
0.00161978
0.00162295
0.00163752
0.00172155
0.00171753
0.00171379
0.00171022
0.00170768
0.00179854
0.00180547
0.00181406
0.00181609
0.00179273
0.00182158
0.00184198
0.00183749
0.0018271
0.00181792
0.00197352
0.00198192
0.00199427
0.00200068
0.00197025
0.00193909
0.00194427
0.00194418
0.00194455
0.0019448
0.00191177
0.00191041
0.00190712
0.00190226
0.00188861
0.00198422
0.00200783
0.00201523
0.00201984
0.00202317
0.00204825
0.00204924
0.0020507
0.00204816
0.00201799
0.00196638
0.00196078
0.00196232
0.00196664
0.00196995
0.00213334
0.00214287
0.00215699
0.00216306
0.00211349
0.001901
0.00184518
0.00184743
0.00186131
0.00187151
0.0020295
0.00202682
0.00202249
0.00201949
0.00202395
0.00195581
0.00192516
0.00192105
0.00192166
0.0019216
0.00202021
0.00202837
0.00203974
0.00204666
0.00202684
0.00187328
0.00194286
0.00194071
0.00192891
0.00191899
0.0019973
0.00200684
0.00202251
0.00202929
0.0019486
0.0018167
0.00182362
0.0018297
0.00183212
0.00183244
0.00200653
0.00201311
0.00201914
0.00201653
0.00198964
0.00198815
0.00189309
0.00184168
0.00200012
0.00200395
0.00183936
0.00187664
0.00188034
0.00187804
0.00187479
0.00198205
0.00198701
0.00199198
0.00199619
0.00198994
0.00188025
0.00185523
0.00194688
0.00193478
0.00184078
0.00189029
0.00195346
0.00194997
0.00182453
0.00183627
0.00195864
0.00197506
0.00194575
0.00219634
0.0020737
0.00203814
0.00209433
0.00206403
0.00202012
0.00195593
0.00186597
0.0018893
0.00197335
0.00198651
0.00194952
0.00197266
0.00200147
0.00199169
0.00195424
0.00200181
0.00200024
0.00204715
0.00212329
0.00210564
0.00203071
0.0020206
0.00205905
0.00196997
0.00200317
0.00201519
0.00201498
0.00200729
0.0020058
0.00200947
0.00198755
0.00196801
0.00198394
0.00195422
0.00192323
0.0017952
0.00190767
0.00192064
0.00180611
0.00185536
0.00195197
0.00190849
0.00187499
0.00189631
0.00190387
0.00193718
0.00194372
0.00192517
0.00192676
0.00191022
0.00195821
0.00200319
0.00192943
0.00194079
0.00197726
0.00200222
0.00196294
0.00194795
0.0020139
0.00222527
0.00199736
0.00196785
0.00208198
0.00198789
0.00198836
0.00183553
0.00158082
0.00122125
0.000862545
0.00071252
0.000750777
0.00109806
0.00129658
0.00165336
0.00185017
0.00188485
0.00190139
0.00191312
0.0022195
0.00223525
0.00225175
0.00225408
0.00218594
0.00156409
0.00166449
0.00167945
0.00167888
0.0016736
0.00232433
0.00234726
0.00237513
0.00238208
0.00231377
0.0016427
0.00163812
0.0016396
0.00164232
0.00164172
0.0023792
0.00240383
0.00243846
0.00246592
0.00240474
0.00237396
0.00252769
0.00254547
0.00253509
0.00252301
0.0017817
0.00178424
0.00178148
0.00176674
0.00169629
0.00145315
0.00155354
0.00155821
0.0015568
0.00155523
0.00201908
0.00203026
0.00204336
0.00205454
0.00208614
0.001523
0.00150292
0.00150416
0.00150648
0.00150429
0.00149734
0.00149874
0.00150088
0.00150691
0.00151532
0.00203185
0.00194784
0.00191947
0.0019036
0.0018928
0.00179731
0.00181077
0.00183327
0.00186612
0.00188587
0.0018995
0.00181067
0.00178652
0.00177638
0.00177059
0.00173683
0.00174474
0.00176022
0.00178744
0.00183412
0.00172161
0.00165023
0.00163989
0.00164354
0.00164782
0.00145795
0.00141349
0.00140858
0.0014091
0.00140782
0.00148591
0.00148492
0.00148203
0.00148362
0.00151662
0.00183555
0.00180639
0.00178436
0.00177194
0.00176637
0.0016935
0.00169293
0.00169601
0.00171832
0.00182162
0.00172987
0.00172622
0.00172924
0.00173082
0.00173092
0.00175105
0.0017492
0.00174573
0.00174238
0.00175029
0.00180657
0.00171979
0.00162906
0.00144585
0.00137131
0.00135955
0.00136352
0.00136593
0.00136588
0.00166417
0.00166751
0.00167507
0.00169398
0.00172078
0.00171738
0.00168761
0.00167026
0.00166387
0.00166153
0.00142096
0.00142279
0.00142379
0.00142022
0.00141295
0.00134861
0.00133381
0.00132149
0.00131467
0.00131083
0.00114881
0.00115211
0.00115996
0.00117606
0.00119027
0.00110796
0.00109986
0.00108995
0.00108586
0.00108465
0.000912937
0.000916647
0.000919067
0.00091639
0.000910064
0.000915672
0.000926199
0.0009277
0.000922547
0.000915898
0.000746311
0.000747201
0.000750543
0.00075944
0.000775116
0.00078635
0.000768191
0.000762784
0.0007614
0.000760786
0.000751153
0.000753305
0.000757983
0.00076869
0.000794067
0.000711225
0.000715346
0.000710739
0.000701641
0.000693281
0.00053983
0.000540022
0.000540983
0.000545778
0.000562978
0.000606035
0.000582416
0.000577786
0.000576893
0.000576629
0.000570705
0.000571366
0.000573778
0.000581816
0.000609893
0.000737661
0.00075252
0.000747842
0.000737304
0.000728096
0.000676616
0.000675779
0.000675112
0.000678081
0.000698985
0.000836788
0.000816472
0.000813404
0.000816064
0.00081865
0.000785792
0.000688148
0.00067864
0.000651362
0.000643286
0.000639871
0.00063785
0.00060745
0.000572266
0.00061949
0.0006329
0.000631473
0.000624663
0.000618472
0.000534007
0.000531287
0.000529505
0.000533925
0.000565925
0.000523051
0.000498667
0.000493492
0.000490704
0.000488242
0.000466119
0.000466129
0.000467017
0.00047151
0.000491829
0.000399643
0.000380244
0.000376125
0.00037787
0.000379729
0.000427623
0.000429398
0.000433414
0.000444247
0.000471249
0.000524836
0.000516027
0.000509653
0.000498992
0.000488975
0.000628981
0.000627708
0.000630059
0.000644483
0.00068473
0.000884915
0.000842455
0.000823895
0.000815618
0.000811381
0.00092161