/*--------------------------------*- C++ -*----------------------------------*\
  =========                 |
  \\      /  F ield         | OpenFOAM: The Open Source CFD Toolbox
   \\    /   O peration     | Website:  https://openfoam.org
    \\  /    A nd           | Version:  7
     \\/     M anipulation  |
\*---------------------------------------------------------------------------*/
FoamFile
{
    version     2.0;
    format      ascii;
    class       volVectorField;
    location    "3.75";
    object      wallShearStress;
}
// * * * * * * * * * * * * * * * * * * * * * * * * * * * * * * * * * * * * * //

dimensions      [0 2 -2 0 0 0 0];

internalField   uniform (0 0 0);

boundaryField
{
    outlet1
    {
        type            calculated;
        value           uniform (0 0 0);
    }
    Wall
    {
        type            calculated;
        value           nonuniform List<vector> 
40276
(
(0.000318965 5.41288e-05 0.000197857)
(-0.000185667 -7.13794e-06 0.00041472)
(-0.000189168 -6.57269e-06 0.000406338)
(0.000163819 -0.000149059 0.000148877)
(0.000123519 -0.000101955 0.000127584)
(8.42477e-05 -5.90255e-05 0.000121495)
(7.44321e-05 -2.66575e-05 0.000125606)
(9.44779e-05 -6.50667e-06 0.000141119)
(8.00156e-05 7.47202e-06 0.000135489)
(7.90414e-05 -5.32017e-06 0.000141573)
(0.000446443 4.56974e-05 0.000474643)
(0.000537927 2.13046e-05 0.00051838)
(0.000586248 3.53937e-05 0.000940843)
(0.000564805 4.0195e-05 0.000872971)
(0.000352061 4.37194e-06 0.000283505)
(0.000320889 2.25053e-05 0.000320105)
(0.000352881 4.06883e-05 0.000136225)
(0.000330527 3.43517e-05 7.90104e-05)
(-2.60479e-05 -9.35843e-05 -3.38996e-05)
(-2.25002e-05 -0.000121314 -2.91113e-05)
(-0.000129004 3.30048e-05 0.000208812)
(-0.000158484 3.7585e-05 0.00019653)
(-0.000110209 2.98814e-05 6.70428e-05)
(-0.000128083 2.75987e-05 6.34968e-05)
(-9.43679e-05 2.24294e-05 4.28692e-05)
(-0.000106243 2.34625e-05 3.72763e-05)
(-0.000103677 3.67559e-05 1.53121e-05)
(-0.000102582 3.70131e-05 1.10937e-05)
(-0.000179558 5.76143e-05 3.51947e-05)
(-0.000155933 4.7762e-05 2.54225e-05)
(-0.000144904 4.77125e-05 9.53155e-05)
(-0.000165675 5.81618e-05 0.000104685)
(-5.25961e-05 -3.09166e-06 0.000159747)
(-4.68369e-05 -4.77677e-06 0.00014848)
(-5.05791e-05 9.63867e-06 6.54293e-06)
(-5.00748e-05 1.08089e-05 6.26937e-06)
(0.000587122 5.63354e-05 0.000153353)
(0.000634426 3.12605e-05 0.000154564)
(0.00113338 0.000268402 0.000297957)
(0.00130688 0.000358001 0.00032064)
(0.00100387 4.72893e-05 7.21413e-05)
(0.000943302 1.568e-05 9.67824e-05)
(-3.16277e-05 -1.4782e-05 -0.000406451)
(-1.02156e-05 -1.215e-05 -0.000381504)
(-3.17838e-05 -1.05626e-06 -0.000382504)
(-3.02995e-05 -6.85722e-06 -0.000329585)
(-5.93854e-05 7.43919e-07 -0.000337893)
(-4.60982e-05 -3.49817e-06 -0.000284408)
(-6.01437e-05 -6.04351e-07 -0.000255618)
(-6.22014e-05 1.75193e-06 -0.000222396)
(-5.34805e-05 -1.91183e-06 -0.000193145)
(-6.75059e-05 2.26097e-06 -0.000200657)
(-6.20503e-05 -5.913e-07 -0.000170098)
(-6.57105e-05 3.5026e-06 -0.000170609)
(0.000443505 7.0911e-05 0.000215037)
(0.000453932 8.48302e-05 0.000184022)
(-4.25983e-05 2.34213e-05 0.000176244)
(6.37497e-05 2.21426e-05 0.000189892)
(-3.73701e-05 1.85404e-05 0.000179482)
(-0.000450575 -4.30093e-05 -0.000430767)
(-0.000474749 -3.77489e-05 -0.000437647)
(1.89562e-05 3.45446e-05 0.000289676)
(-1.26928e-05 -1.15635e-05 0.000223895)
(1.04495e-05 -3.34622e-07 -3.55572e-06)
(1.31648e-05 3.18431e-07 8.07521e-07)
(1.03503e-05 1.11222e-08 9.72634e-09)
(7.47906e-06 -4.17371e-07 -6.30544e-07)
(1.05638e-05 -5.51431e-08 -2.64128e-06)
(-0.000100105 -8.46867e-06 -9.15934e-05)
(-0.000109885 1.92398e-06 -9.89707e-05)
(-6.51011e-05 6.05282e-06 -0.00014914)
(-6.35767e-05 -4.53236e-07 -0.000152628)
(-3.26747e-05 2.43689e-06 -3.28628e-05)
(-3.22935e-05 2.42871e-06 -3.14191e-05)
(-2.84633e-05 2.30021e-06 -2.91634e-05)
(-2.7325e-05 3.00165e-06 -2.79339e-05)
(-3.10777e-05 1.42313e-06 -2.97436e-05)
(2.26935e-05 -1.371e-06 -9.34251e-06)
(1.97439e-05 -1.5562e-06 -1.29001e-05)
(2.1243e-06 3.77852e-06 -1.48629e-07)
(3.04081e-06 3.3884e-07 -8.78476e-08)
(8.59327e-06 -1.23481e-07 -5.4159e-07)
(1.80243e-05 -3.22845e-06 1.23954e-05)
(1.69891e-05 -3.33932e-06 1.24576e-05)
(2.10908e-05 -9.48588e-06 1.4584e-05)
(1.04964e-05 8.01154e-08 3.0909e-06)
(7.91924e-06 -2.56342e-07 2.18152e-06)
(1.03781e-05 -3.25862e-08 5.25125e-06)
(1.92053e-05 -9.9378e-06 1.37444e-05)
(1.59783e-05 -1.2795e-05 1.21162e-05)
(1.34336e-05 -1.23897e-05 1.07845e-05)
(-3.26134e-05 -1.42686e-06 -2.96451e-05)
(8.04214e-06 -1.35944e-07 4.28038e-06)
(9.90733e-06 -6.36019e-08 6.63135e-06)
(7.89061e-06 -1.17727e-07 5.7075e-06)
(7.20414e-06 -4.57631e-08 6.41845e-06)
(6.32256e-06 -6.86753e-08 6.73387e-06)
(5.34058e-06 -9.66236e-08 6.78926e-06)
(1.93001e-06 5.81703e-08 5.01839e-06)
(8.86446e-07 4.66367e-09 4.44122e-06)
(-1.53324e-07 -4.79057e-08 3.76838e-06)
(-3.85471e-06 3.79134e-08 -5.76258e-07)
(-4.31447e-06 -1.05866e-08 -1.52225e-06)
(-3.68841e-05 1.85967e-06 -3.2496e-05)
(-4.69464e-06 -7.60195e-10 -2.57583e-06)
(-1.15648e-05 -9.24335e-06 -1.39907e-05)
(-9.34988e-06 -9.45717e-06 -1.08799e-05)
(-4.82916e-06 -6.33985e-08 -3.60437e-06)
(-4.86557e-06 -3.64616e-08 -4.76641e-06)
(-4.42089e-06 -1.3029e-07 -5.43907e-06)
(-4.76419e-06 -4.08026e-08 -6.10082e-06)
(-4.2081e-06 -1.97613e-07 -6.89223e-06)
(-4.20463e-06 -1.50366e-07 -7.4715e-06)
(-3.76137e-06 -4.19037e-07 -8.5311e-06)
(-3.75232e-06 -6.97711e-07 -8.27849e-06)
(2.31928e-06 -1.02687e-06 -2.47151e-05)
(1.40713e-06 -2.81592e-06 -2.69178e-05)
(-5.04614e-07 -2.92575e-06 -2.56848e-05)
(-0.000264534 -6.20795e-05 0.000480344)
(-0.000266649 -6.03932e-05 0.000435749)
(-8.17783e-06 -1.32643e-06 6.27342e-06)
(-1.13794e-05 -1.75141e-06 1.01618e-05)
(-2.73438e-05 -2.62243e-06 2.27617e-05)
(-2.08621e-05 -3.3323e-06 1.94e-05)
(-9.95524e-07 -1.94823e-05 -1.38097e-06)
(2.33807e-07 -1.84769e-05 -7.41104e-08)
(-0.000127882 2.71905e-05 0.000184626)
(-0.000110873 3.62342e-05 0.000156803)
(-0.000160063 -1.48249e-05 0.000274093)
(-0.000139943 -2.07684e-05 0.000236096)
(-0.000104053 -4.2526e-06 0.000174714)
(-9.10636e-05 -7.37742e-06 0.000150412)
(-0.000159235 9.60737e-05 0.000476225)
(-0.00022273 0.000167358 0.000670451)
(9.40926e-06 -1.258e-05 0.000188548)
(1.06526e-06 -5.4554e-06 0.000158868)
(-0.000101614 2.73821e-05 0.000192923)
(-5.50685e-05 1.10774e-06 0.000167592)
(-0.000185585 -4.6541e-05 0.000500302)
(-0.000186905 -2.80215e-05 0.000499721)
(-0.000186215 -3.68232e-05 0.000530419)
(-0.000204089 -1.26173e-05 0.0005331)
(-0.000558772 3.09515e-06 -0.000151061)
(-0.00064054 3.61779e-06 -0.000183057)
(-2.27599e-05 -7.96789e-05 9.95966e-06)
(-2.65541e-05 -7.89426e-05 1.1926e-05)
(-2.15041e-05 -4.37926e-05 6.53677e-05)
(-2.52575e-05 -5.35659e-05 8.16831e-05)
(-2.90718e-05 -5.2472e-05 6.59842e-05)
(-2.32495e-05 -4.03915e-05 5.36607e-05)
(-1.54711e-05 -8.61488e-05 8.48805e-06)
(-1.98983e-05 -9.83564e-05 6.53339e-06)
(-2.35066e-05 -8.34838e-05 8.82042e-06)
(-2.18926e-05 -8.64916e-05 9.21371e-06)
(-2.3136e-05 -0.000128636 -1.56103e-05)
(-1.99744e-05 -0.000111411 -1.41257e-05)
(-7.64372e-06 -5.6621e-05 -3.31681e-06)
(-9.87956e-06 -5.05363e-05 -4.75766e-06)
(-6.09686e-05 -3.10763e-05 9.45316e-05)
(-5.5754e-05 -3.28989e-05 8.9328e-05)
(7.79669e-05 4.75107e-06 -0.000239891)
(8.22226e-05 -3.61001e-06 -0.000225489)
(-0.000136223 -5.76392e-05 -1.23633e-05)
(-0.000135148 -6.44694e-05 -1.45293e-05)
(-0.000305542 -4.85271e-05 0.00013669)
(-0.000327603 -5.28498e-05 0.000127057)
(-0.000288226 -7.12782e-05 -2.57762e-05)
(-0.000281563 -5.89126e-05 -3.48291e-05)
(-0.000168839 0.000193508 0.00022995)
(-0.000162209 0.000241981 0.000212875)
(-0.000247358 -4.43968e-05 1.3105e-05)
(-0.00012998 -4.59878e-05 -1.83006e-05)
(-0.000206367 -7.79624e-05 7.45841e-05)
(-0.00017789 -7.64599e-05 6.31003e-05)
(-0.000226319 -5.17751e-05 5.85083e-05)
(-6.67458e-05 -4.14177e-05 -7.01621e-06)
(-3.91187e-05 -2.08937e-05 6.05263e-05)
(-3.22373e-05 -1.93708e-05 5.58803e-05)
(0.000679372 -0.0002874 0.00046488)
(0.000599961 -0.000238734 0.000378031)
(0.000618435 -0.000370252 0.000237927)
(0.000545531 -0.000256935 0.000264184)
(0.00056794 -0.000316776 0.00024169)
(0.000350673 -0.000289602 0.000180517)
(0.000455135 -0.000336067 0.000216445)
(0.000359812 -0.000277907 0.000183047)
(0.000549703 -0.000279142 0.000386961)
(0.0005919 -0.000345362 0.000374426)
(0.000564421 -0.000320014 0.000311243)
(0.000474879 -0.000359633 0.000184744)
(0.000573893 -0.000389422 0.0001808)
(0.000480037 -0.000315728 0.000226167)
(0.000226975 -0.000196462 0.00015347)
(0.00033985 -0.000296298 0.000177921)
(0.00026866 -0.000218778 0.000174016)
(0.000215366 -0.000192906 0.000160057)
(9.27572e-05 -6.38985e-05 0.000124844)
(0.000186817 7.34283e-05 0.000106875)
(0.000236357 7.85503e-05 0.000140653)
(0.000211754 5.97605e-05 0.000148168)
(0.000221297 5.04024e-05 0.000102904)
(0.000270997 5.41068e-05 0.000129762)
(0.00023365 7.35078e-05 0.000140274)
(0.000218359 6.14431e-05 0.000129988)
(9.17538e-05 -5.17642e-06 0.000186872)
(8.19823e-05 1.29926e-06 0.000174117)
(0.000103232 1.66986e-05 0.000153566)
(0.000123656 9.343e-06 0.000187612)
(0.000103432 4.97671e-06 0.000157904)
(9.16832e-05 1.26535e-05 0.00014092)
(0.000116882 3.71718e-06 0.000193434)
(9.0878e-05 3.97006e-08 0.000177684)
(5.52861e-05 -2.27337e-05 0.000145519)
(6.4712e-05 -2.07305e-05 0.000135523)
(8.03512e-05 9.09773e-06 0.000127009)
(5.43496e-05 -1.33843e-05 0.000104549)
(6.13303e-05 -5.23671e-06 9.5792e-05)
(5.65324e-05 -1.26459e-05 0.000114279)
(1.54119e-05 -3.78012e-05 8.819e-05)
(2.5931e-05 -2.4705e-05 7.42656e-05)
(9.60612e-05 2.79536e-05 0.000150866)
(0.000105486 3.53127e-05 0.000143985)
(0.000105772 3.54412e-05 0.000143193)
(0.0001042 4.09355e-05 0.000124287)
(6.85782e-05 -1.48721e-06 0.000162607)
(6.61159e-05 4.9244e-06 0.000138529)
(6.38127e-05 1.82951e-05 9.91231e-05)
(6.7261e-05 2.16215e-05 9.43806e-05)
(5.38194e-05 7.81879e-06 0.000102905)
(0.000161221 6.16102e-05 9.98892e-05)
(0.000115332 4.65554e-05 9.04809e-05)
(0.000183695 6.54744e-05 0.000104576)
(0.000179837 5.46334e-05 9.6525e-05)
(0.00013458 5.26955e-05 7.75139e-05)
(0.00013732 4.77073e-05 8.43221e-05)
(4.13979e-05 -2.06157e-05 0.000124273)
(3.49013e-05 -1.3561e-05 0.000110318)
(2.50071e-05 -3.27908e-05 0.000116357)
(1.89088e-05 -1.51878e-05 9.40298e-05)
(-8.05365e-07 -3.57775e-05 6.65355e-05)
(-1.88989e-06 -2.40674e-05 5.88377e-05)
(3.8717e-05 4.60423e-06 8.33772e-05)
(6.85827e-05 2.57758e-05 6.92609e-05)
(-4.0101e-06 -1.29846e-05 2.89857e-05)
(1.85746e-05 2.85424e-06 3.91687e-05)
(1.39283e-06 -6.43426e-06 2.43316e-05)
(4.58106e-05 2.16987e-05 3.08012e-05)
(8.35368e-05 3.80855e-05 3.13533e-05)
(9.04592e-05 3.37366e-05 5.68771e-05)
(8.25019e-05 3.52654e-05 4.39882e-05)
(0.000298628 2.02417e-05 0.000520834)
(0.000337973 4.88457e-05 0.000612795)
(0.000300586 -7.14987e-06 0.000534272)
(0.000306669 2.25696e-05 0.000540177)
(0.000403382 0.000113443 0.00045549)
(0.000443492 0.000122459 0.000550666)
(0.00031662 0.00010998 0.000454768)
(0.000350331 0.000104857 0.000524832)
(0.000312403 0.000108119 0.000483039)
(0.000297106 9.08984e-05 0.000502962)
(0.000424551 0.000166538 0.000565191)
(0.000356308 0.000142154 0.000425651)
(0.000413269 0.000151861 0.000537433)
(0.000260916 9.73996e-05 0.000437749)
(0.000353665 0.00012734 0.000548587)
(0.000456139 0.000146024 0.000439627)
(0.000392818 0.00014439 0.000500187)
(0.000391584 0.000144115 0.000508453)
(0.000434691 0.000139353 0.000610646)
(0.000457578 0.000179375 0.000548524)
(0.000500215 0.000193872 0.000540479)
(0.000476673 0.000193469 0.000498791)
(0.000469879 0.00016186 0.000601492)
(0.000456759 0.000165868 0.000605574)
(0.000466557 8.72877e-05 0.000547345)
(0.00059282 9.38401e-05 0.000583059)
(0.000454577 0.000109057 0.0005602)
(0.000340874 0.000106679 0.000424981)
(0.000433489 0.000104064 0.000534531)
(0.00047114 8.14193e-05 0.000468077)
(0.000349314 6.4404e-05 0.000347337)
(0.000371978 0.000112425 0.000407223)
(0.00040936 9.51135e-05 0.000402978)
(0.000405021 0.000104474 0.000386099)
(0.000571128 -4.21702e-05 0.000512482)
(0.000592068 -6.31715e-05 0.000509601)
(0.00062052 -0.000172826 0.000474293)
(0.000468874 -7.26008e-05 0.000420998)
(0.000565978 -0.000146575 0.000354263)
(0.000435595 -1.09018e-05 0.000382326)
(0.000612327 -0.000161682 0.000372639)
(0.000399945 -3.3299e-05 0.000308812)
(0.000525356 -0.000123286 0.000280951)
(0.000645338 -0.000266236 0.000268928)
(0.000374636 6.41587e-05 0.00038848)
(0.000375563 9.32369e-05 0.000398188)
(0.000415266 2.21598e-05 0.000317466)
(0.000406963 6.57534e-05 0.000330022)
(0.000441669 0.000159579 0.000424478)
(0.000460911 0.00015891 0.000553282)
(0.000466698 0.000160017 0.000504724)
(0.000485994 0.00014061 0.000410865)
(0.00054224 0.00017786 0.000450351)
(0.000527134 0.000201027 0.000562621)
(0.000461116 0.000159928 0.000554397)
(0.000494407 0.000161316 0.000589857)
(0.000499917 0.0001842 0.000415681)
(0.000479573 0.000169885 0.000560077)
(0.000481815 0.000174475 0.000565328)
(0.00058953 0.000213328 0.000683946)
(0.000572125 0.000205766 0.000538954)
(0.00043346 0.000126012 0.000389361)
(0.00061217 0.000193178 0.000437207)
(0.000484915 0.000109728 0.000392679)
(0.000623507 0.000156832 0.000394999)
(0.000542483 0.00018996 0.00044661)
(0.00055063 0.000174652 0.000525369)
(0.000732817 0.000278955 0.000535632)
(0.00058101 0.000198577 0.000424267)
(0.000558328 0.00017007 0.000450459)
(0.000778802 0.00027767 0.000475868)
(0.000585138 0.000255227 0.000490492)
(0.000623925 0.000217352 0.00061179)
(0.000580202 0.000188745 0.000649323)
(0.000684987 0.000238006 0.00061916)
(0.000689545 0.000246211 0.000597114)
(0.000359374 0.000136228 0.000486333)
(0.000356241 0.000130689 0.000488871)
(0.000242069 6.62413e-05 0.000455211)
(0.000355782 0.000129897 0.000528256)
(0.000439668 0.000117462 0.000672361)
(0.000404786 0.000108532 0.000625777)
(0.000380404 0.000135831 0.000510577)
(0.000404233 0.00014724 0.000537854)
(0.000388157 0.00014186 0.000585146)
(0.000362927 5.24224e-05 0.000658451)
(0.0003131 2.98449e-05 0.000595506)
(0.000372117 9.80752e-05 0.000632985)
(0.0003464 8.47439e-05 0.000602469)
(0.000310369 2.74465e-05 0.000516413)
(0.000425847 0.000159217 0.000554742)
(0.000451336 0.000128602 0.000641623)
(0.000397906 0.000108849 0.000614362)
(0.000383443 -2.05624e-05 0.000643024)
(0.000482385 0.000134603 0.000741417)
(0.000362016 4.72809e-05 0.000640062)
(0.000468362 0.000179525 0.00055131)
(0.000514574 0.000192943 0.000598817)
(0.000460449 0.000136663 0.000664527)
(0.00043713 0.000162211 0.000579222)
(0.00050954 0.000194932 0.000590854)
(0.000511221 0.000117001 0.000725976)
(0.000515573 0.000131161 0.000800651)
(0.00040953 2.93251e-05 0.000701176)
(0.00037236 2.937e-05 0.000619785)
(0.000404961 5.75451e-05 0.000663574)
(0.000462397 0.000115947 0.000698036)
(0.000392654 5.6722e-05 0.000620509)
(0.000514505 0.000205355 0.000622931)
(0.000517657 9.2524e-05 0.000771936)
(0.000595418 0.000177758 0.00086656)
(0.000273975 1.13246e-06 0.00048131)
(0.0002883 4.18983e-05 0.000500598)
(0.000346784 0.000122206 0.000544642)
(0.00036594 7.41616e-05 0.000619651)
(0.000339247 1.55017e-05 0.000563818)
(0.00043337 8.14782e-05 0.000692363)
(0.000327263 -2.31501e-05 0.000553497)
(0.000333023 2.37114e-05 0.000555966)
(0.000420902 0.000131765 0.000662597)
(0.000344344 3.80376e-05 0.000584123)
(0.000295416 2.82025e-05 0.00049493)
(0.000361403 -8.37709e-06 0.000594191)
(0.00030816 3.36815e-05 0.000515496)
(0.000342581 3.81699e-05 0.00056292)
(0.00041455 2.9768e-05 0.000676624)
(0.000321259 8.18353e-05 0.000550898)
(0.000319318 4.87856e-05 0.000534532)
(0.000405228 -6.53631e-05 0.000618316)
(0.000476995 0.00011514 0.000755416)
(0.00040824 -3.78362e-05 0.000694324)
(0.000520707 5.45641e-05 0.000852318)
(0.000397838 -2.96623e-06 0.000669263)
(0.000419161 1.37237e-05 0.000696283)
(0.000530522 0.000148368 0.000774613)
(0.000422636 4.1703e-05 0.000676174)
(0.00048144 2.13794e-05 0.000768919)
(0.00051457 3.53547e-05 0.000842072)
(0.00051811 1.20786e-05 0.000828906)
(0.000415741 2.85115e-05 0.000664222)
(0.000467355 3.19996e-05 0.000741538)
(0.000416287 1.57195e-05 0.000659077)
(0.000471807 4.37311e-05 0.000745507)
(0.000555917 0.000171093 0.000716486)
(0.000549633 0.000193332 0.000645897)
(-2.10171e-05 -4.90981e-05 0.000160404)
(0.000570007 0.000143947 0.000801097)
(0.000495843 0.000129648 0.000693902)
(0.000633595 0.00023307 0.000691165)
(0.000581013 0.000220109 0.000619203)
(0.000621398 0.000215178 0.000701657)
(-2.52782e-05 -4.87636e-05 0.000159844)
(0.000556329 0.0001717 0.000742472)
(0.000565538 0.000200293 0.000674823)
(0.000615933 0.000223056 0.000711287)
(0.000564443 0.00016246 0.000792412)
(0.000629006 0.000166132 0.000933462)
(-2.29174e-05 -4.85517e-05 0.000157101)
(0.000468584 5.53417e-05 0.000753134)
(0.000433839 4.79627e-05 0.000720834)
(0.000465728 7.54948e-05 0.000725022)
(0.000531275 4.73948e-05 0.000811151)
(0.000464839 9.37617e-05 0.000718469)
(-2.53892e-05 -3.80489e-05 0.000160114)
(0.000579605 0.00022644 0.00068487)
(0.000603518 0.000113207 0.000861014)
(0.00069053 0.000209795 0.00094899)
(0.000664964 0.000219771 0.000792222)
(0.000737344 0.000261752 0.000666741)
(0.00080256 0.000302235 0.000658843)
(0.000651578 0.000186887 0.000851881)
(0.000612336 0.000174271 0.000766035)
(0.000646322 0.000265633 0.000631443)
(0.000680682 0.00024426 0.000689405)
(0.000660131 0.000211256 0.000776559)
(0.000719647 0.000246234 0.000822187)
(0.000756646 0.000290804 0.000798806)
(0.000674011 0.000209785 0.000857853)
(0.000692458 0.000165804 0.000960172)
(0.000565935 0.00013008 0.000804004)
(0.000636931 0.000134735 0.000994753)
(0.000513661 9.02606e-05 0.00077442)
(0.000598546 7.81899e-05 0.000908771)
(0.000744914 0.000245841 0.000944299)
(0.000617527 0.000193454 0.000791192)
(0.000664027 0.000174117 0.000946549)
(0.000552534 9.12589e-05 0.000890933)
(0.000567406 0.000143363 0.000814138)
(0.000750742 0.000133723 0.00105435)
(0.000647469 0.000136323 0.00100919)
(0.000595887 5.62603e-05 0.00095778)
(0.000589749 2.32125e-05 0.000938402)
(0.00047964 1.92388e-05 0.000798758)
(0.000469288 4.74549e-05 0.000749049)
(0.000610058 0.000113651 0.000885557)
(0.000626822 0.0001263 0.000978124)
(0.00058342 2.16842e-05 0.00091482)
(0.000602661 4.29363e-05 0.000946954)
(0.00060672 -2.68995e-05 0.000943315)
(0.000581958 5.06028e-05 0.00089216)
(0.000682999 0.000131941 0.000992544)
(-3.13682e-05 -4.31468e-05 0.000168508)
(0.000512313 -7.13668e-07 0.000836315)
(0.00046454 4.83701e-05 0.000735191)
(0.000667429 0.000161534 0.000981546)
(0.000703091 0.000202777 0.00104911)
(0.000580986 2.22167e-06 0.000968196)
(0.000733327 7.78363e-05 0.00115393)
(0.000539719 5.44411e-05 0.000846138)
(0.000662108 4.18191e-05 0.00101572)
(0.000531576 8.25859e-05 0.000842825)
(0.000509062 1.16631e-05 0.000781977)
(0.000646374 -7.0345e-05 0.000960962)
(0.00071744 5.46902e-05 0.00113443)
(0.000715079 3.70328e-05 0.00112476)
(0.000321831 -4.77787e-05 0.000462783)
(0.000245761 1.75273e-05 0.000378737)
(0.000268752 1.27194e-05 0.000387617)
(0.000254016 7.12349e-06 0.000386058)
(0.00018477 3.25088e-05 0.000328056)
(0.000236359 3.06584e-05 0.000374816)
(0.000298493 1.24118e-05 0.000400415)
(0.000231778 4.64644e-05 0.000376652)
(0.000316604 3.72062e-05 0.000559617)
(0.000312784 5.09781e-05 0.000526023)
(-2.31296e-05 -4.17957e-05 0.00015366)
(-2.68009e-05 -4.38232e-05 0.000160561)
(-2.47987e-05 -4.04928e-05 0.000148719)
(-2.62825e-05 -3.68065e-05 0.00014958)
(0.000341256 3.71871e-05 0.000541292)
(0.000305364 7.35178e-05 0.000493722)
(0.000354223 2.32584e-05 0.000487878)
(0.000308135 4.41035e-05 0.000439014)
(0.000344658 9.01471e-06 0.000467261)
(0.000332036 3.33159e-05 0.000449041)
(-2.97274e-05 -3.61925e-05 0.000154971)
(0.000347136 1.38034e-05 0.000461902)
(-3.50548e-05 -2.88558e-05 0.00016505)
(-3.01427e-05 -3.45727e-05 0.000156046)
(0.000318032 3.21976e-05 0.000233688)
(0.000298586 3.31826e-05 0.000244665)
(0.000292788 1.56497e-05 0.000246604)
(-3.34845e-05 -3.44107e-05 0.000154069)
(-2.6536e-05 -3.82997e-05 0.000164776)
(-2.59286e-05 -4.18458e-05 0.000161311)
(-3.234e-05 -3.37337e-05 0.000175213)
(-3.38829e-05 -4.22747e-05 0.000182831)
(-2.97222e-05 -3.02554e-05 0.000166807)
(-2.85799e-05 -2.61918e-05 0.000159598)
(-3.46855e-05 -3.44544e-05 0.000159168)
(0.000286928 5.96603e-05 0.000127917)
(0.000333612 5.96272e-05 0.000168785)
(0.000277313 4.04422e-05 0.000135542)
(0.000268528 6.02998e-05 0.0001264)
(0.000293496 5.23352e-05 0.000150803)
(0.000330129 2.97616e-05 0.000179846)
(0.000316114 3.21862e-05 0.000219652)
(0.00035502 8.64644e-06 0.000240212)
(0.000348968 2.61667e-05 0.000212486)
(0.000312813 2.94068e-05 0.000232939)
(0.000329587 4.61814e-05 0.000163593)
(0.000342897 2.4002e-05 0.000177552)
(0.000315974 1.82223e-05 0.00032999)
(0.00029403 2.69003e-05 0.000343685)
(0.000319863 1.54996e-05 0.000376073)
(0.000273776 2.44522e-05 0.000354336)
(0.000297444 1.25503e-05 0.000366744)
(0.000247621 3.17021e-05 0.000343932)
(0.00035755 3.52602e-05 0.000390388)
(0.000372791 9.24539e-06 0.00034453)
(0.000356278 1.60117e-05 0.00032273)
(0.000307351 1.94661e-05 0.000315639)
(0.000326726 1.16464e-05 0.000413892)
(0.000331049 1.35075e-05 0.000365566)
(0.000354355 3.93875e-05 0.000453262)
(0.000374858 2.074e-05 0.000296839)
(0.000383197 -3.34168e-07 0.000361746)
(0.000379258 -6.20475e-06 0.000301448)
(0.000395703 7.35245e-06 0.000360639)
(0.000405612 -9.71883e-06 0.000306336)
(0.000366296 1.6425e-05 0.000407648)
(0.00036963 3.54494e-06 0.000445485)
(0.000394132 -2.03621e-05 0.000426352)
(0.000400762 2.39258e-05 0.000494233)
(0.000453424 -3.66983e-06 0.000466055)
(0.000443435 -3.06135e-05 0.000398213)
(0.000438109 -3.37222e-05 0.000317739)
(0.000439038 -6.45001e-06 0.000394766)
(0.000380073 -1.57628e-06 0.000249803)
(0.000373422 -2.14885e-06 0.000207622)
(0.000399997 3.74062e-06 0.000249771)
(0.000244054 6.24774e-05 9.34308e-05)
(0.000267243 5.68236e-05 0.000119645)
(0.00021366 6.39137e-05 6.8374e-05)
(0.00025729 6.39216e-05 8.67942e-05)
(0.000297483 4.21791e-05 0.000123)
(0.000347566 2.25018e-05 0.000153463)
(0.000292099 5.35882e-05 0.000115973)
(0.000152908 5.59296e-05 4.00668e-05)
(0.000250555 7.50292e-05 5.62321e-05)
(6.89105e-05 2.97062e-05 4.54538e-05)
(9.43579e-05 4.00741e-05 3.58543e-05)
(0.000196727 7.43222e-05 3.03008e-05)
(0.000229541 6.5199e-05 8.08417e-05)
(0.00021226 3.77787e-05 1.70494e-05)
(0.00026221 5.29242e-05 7.76928e-05)
(0.000322778 4.11063e-05 5.56465e-05)
(0.000207596 6.53281e-05 2.74543e-05)
(0.000207459 5.07542e-05 3.72571e-05)
(0.000294355 5.5676e-05 4.63367e-05)
(0.000483291 -4.02652e-05 0.000308959)
(0.000509645 -5.195e-05 0.000442556)
(0.000480197 -5.1898e-05 0.000368024)
(0.000521863 -4.15626e-05 0.000443389)
(0.000395716 1.15008e-05 0.000203814)
(0.000444549 -3.8667e-05 0.000267595)
(0.000411727 -9.40086e-06 0.000233827)
(0.000417513 -1.72368e-05 0.00025398)
(0.000385395 1.32554e-05 0.000154072)
(0.000419805 -1.12747e-05 0.000212109)
(0.000502497 -6.17347e-05 0.000229288)
(0.000555728 -5.52152e-05 0.000311715)
(0.000562373 -0.000101804 0.000367123)
(0.000537755 -6.98126e-05 0.000286429)
(0.000487724 -5.01391e-05 0.000323242)
(0.00036726 2.62288e-05 8.3076e-05)
(0.0003906 9.11845e-06 0.000104106)
(0.000430974 -3.30014e-05 0.000166627)
(0.000402068 4.64735e-06 0.000115752)
(0.000412642 -1.05644e-05 0.000131346)
(0.000321145 4.03103e-05 8.21057e-05)
(0.000374838 8.59703e-06 9.31207e-05)
(0.00054217 -5.55287e-05 0.000207674)
(0.00056131 -9.44064e-05 0.000242878)
(0.000613456 -0.00011833 0.000209263)
(0.000493867 -4.86121e-05 0.000183145)
(0.000455783 -2.08156e-05 0.000173125)
(0.000494583 -4.82856e-05 0.000156512)
(0.000283722 4.96682e-05 0.000483547)
(0.000300251 2.78555e-05 0.000494913)
(0.00033566 -2.24648e-05 0.000522069)
(0.000331455 1.09446e-05 0.000516529)
(0.000281432 6.50615e-05 0.000473248)
(0.000313066 4.19e-06 0.00047123)
(0.000428488 -2.81826e-05 0.000636296)
(0.000299077 3.03275e-05 0.000490915)
(0.00032892 1.2882e-05 0.000505557)
(0.000372535 2.2921e-05 0.000573665)
(0.000363214 8.08847e-07 0.000513753)
(0.00033261 1.93979e-05 0.000478187)
(0.000362128 2.05236e-05 0.000524439)
(0.000455079 -1.03397e-05 0.00064925)
(0.000472664 2.20895e-05 0.000778599)
(0.000351979 4.67853e-05 0.000562488)
(0.000396369 4.73682e-05 0.000641195)
(0.000394137 6.10622e-05 0.000662453)
(0.000418855 8.60531e-06 0.000644469)
(0.000551901 -6.5601e-05 0.00078022)
(0.000506052 -9.15045e-05 0.000685592)
(0.000409986 7.89536e-05 0.000681259)
(0.000426272 5.28437e-06 0.000643388)
(0.000375864 2.67764e-05 0.00055085)
(0.000417725 2.07974e-05 0.000607213)
(0.000407779 -4.10236e-06 0.000542878)
(0.000358182 1.50087e-05 0.000479433)
(0.000401089 1.3755e-05 0.000540634)
(-3.62301e-05 -2.99304e-05 0.000161034)
(0.000485666 -5.55143e-05 0.000626824)
(0.000438986 -5.76115e-06 0.000548686)
(0.000487789 1.72713e-05 0.000639237)
(0.000401526 1.13228e-05 0.00059964)
(0.000460745 -1.21263e-05 0.000622487)
(0.000525616 -1.91051e-05 0.000704613)
(0.000463225 -3.70888e-05 0.000543988)
(0.000440822 -3.05458e-05 0.000459459)
(0.00043884 1.54132e-05 0.000553921)
(0.000626447 -2.92678e-05 0.000958641)
(0.000427795 3.48343e-05 0.000669679)
(-3.63775e-05 -2.57632e-05 0.000148829)
(0.000454873 1.40799e-05 0.000674088)
(0.000520244 1.63659e-05 0.000777169)
(0.000608161 -4.0687e-05 0.000879486)
(0.000601316 -7.51684e-05 0.000802127)
(0.000428516 8.90742e-07 0.000594043)
(-4.14977e-05 -2.12026e-05 0.000160588)
(0.000518042 -0.000116495 0.000558515)
(0.000552782 -1.52976e-05 0.00072398)
(0.000591579 -3.3792e-05 0.000852911)
(0.000505373 -1.30681e-05 0.000714961)
(0.000568545 3.96147e-06 0.000803888)
(0.00062992 -4.98138e-05 0.000820517)
(0.000542092 3.07406e-06 0.000706566)
(0.000694819 -0.000120645 0.000855439)
(0.000588031 -8.58248e-05 0.00070204)
(0.000638129 -4.7474e-05 0.000828223)
(0.00047627 4.26686e-05 0.00075267)
(0.000478834 -7.54742e-06 0.000713113)
(0.00058572 -3.54558e-05 0.00085182)
(0.000645075 -1.81479e-05 0.000976581)
(0.000622377 -9.46279e-05 0.000895414)
(0.000563007 8.92949e-05 0.000885549)
(0.000669735 -6.32778e-05 0.00101576)
(0.000623715 0.000117807 0.000995531)
(0.000582946 2.54013e-05 0.000905208)
(0.000565917 5.43609e-06 0.000848324)
(0.000676673 -5.72058e-05 0.000972908)
(0.000545419 -2.27437e-05 0.000813324)
(0.000584799 -4.55901e-05 0.000805144)
(0.000675228 -6.81376e-05 0.000915265)
(0.000783499 -0.000110333 0.00102229)
(0.000588757 -7.97382e-05 0.000796077)
(0.000666165 -0.000133432 0.000765169)
(0.00071965 -3.62599e-05 0.000944216)
(0.000513035 -4.74222e-05 0.000507431)
(0.000450688 -7.10844e-05 0.000492719)
(0.000531122 -9.18161e-05 0.00050841)
(0.000526847 -8.09966e-06 0.000635077)
(0.000604083 -6.12029e-05 0.00069159)
(0.000565772 -5.49556e-05 0.000560337)
(0.000548668 -9.62713e-05 0.000485254)
(0.000578543 -0.000102645 0.000384796)
(0.000560611 -6.10149e-05 0.000475175)
(0.000644668 -0.000120205 0.000568658)
(0.000632237 -0.000158323 0.00044155)
(0.000649885 -0.000116276 0.000550441)
(0.000666687 -0.000123552 0.000706453)
(-4.42145e-05 -1.70288e-05 0.00015882)
(0.000600678 -0.000124013 0.000584349)
(0.000640326 -9.05572e-05 0.000697377)
(0.000769332 -0.000200296 0.000837742)
(0.000703031 -0.000182186 0.000650968)
(0.000713131 -0.000104286 0.000801977)
(-4.75043e-05 -1.23394e-05 0.000160124)
(0.000730444 -0.000197845 0.00064817)
(0.000747203 -0.000243141 0.000480658)
(-3.60063e-05 -3.42861e-05 0.000183318)
(0.000695647 -0.000121859 0.000655958)
(0.000603681 -0.000114241 0.00040859)
(-4.00593e-05 -2.69951e-05 0.000186559)
(0.000622669 -0.00012102 0.000347265)
(0.000610274 -9.99841e-05 0.000399267)
(-3.4293e-05 -3.41136e-05 0.000168595)
(0.000717442 -0.000133856 0.000324424)
(-3.74437e-05 -1.66514e-05 0.000169935)
(-4.07352e-05 -2.85759e-05 0.000183389)
(0.000681394 -0.000205524 0.000393959)
(0.000688176 -0.000188922 0.000337542)
(-4.18938e-05 -2.715e-05 0.000183064)
(0.000673901 -0.000125979 0.000487849)
(0.000533291 -0.000361998 0.000215677)
(-4.54288e-05 -1.97227e-05 0.000178343)
(0.000581864 -0.000400008 0.000147621)
(0.000470695 -0.000340001 0.00014217)
(-4.44491e-05 -2.03758e-05 0.00018246)
(0.000395433 -0.000310428 0.00018026)
(0.000457671 -0.000356901 0.000159677)
(-4.83415e-05 -1.29907e-05 0.000191158)
(0.000341788 -0.000286865 0.000126804)
(0.000416315 -0.000294967 0.000233548)
(-3.71753e-05 -1.95636e-05 0.000164469)
(-3.36806e-05 -1.73403e-05 0.000151694)
(0.000455314 -0.000334651 0.000141867)
(-3.93116e-05 -2.37413e-05 0.000154147)
(-4.11693e-05 -1.8151e-05 0.000168447)
(0.000277872 -0.000238928 0.000156095)
(-3.96192e-05 -1.57804e-05 0.000153008)
(-4.35422e-05 -1.31577e-05 0.000166821)
(0.000342673 -0.000296684 0.000154223)
(-4.21361e-05 -1.25537e-05 0.000151166)
(0.000247019 -0.000219682 0.000126917)
(0.000157464 -0.000157393 9.76199e-05)
(0.000247249 -0.000224218 0.000151759)
(0.000176823 -0.000154918 0.000127462)
(0.00014606 -0.000136623 0.000104619)
(0.000208809 -0.000169865 0.000138333)
(0.000151203 -0.00014381 0.000100319)
(0.000278464 -0.000206961 0.000199243)
(0.000316098 -0.000244127 0.000157698)
(0.000338583 -0.000319428 7.85105e-05)
(0.00048294 -0.000389336 0.000100293)
(0.00034321 -0.000270772 0.000135797)
(0.000185461 -0.000181764 7.56435e-05)
(0.00032571 -0.000292645 0.000110929)
(0.000236265 -0.00019453 0.000136738)
(0.000206525 -0.000189558 0.000135887)
(0.00024067 -0.000184792 0.000167509)
(0.000292884 -0.000227398 0.000132663)