# Wall shear stress
# Time        	patch         	min           	max           
5.000000e+01	wall	(-1.448932e-09 -3.933889e-09 -8.830992e-10)	(2.720597e-09 2.264962e-09 5.882492e-09)
