# Wall shear stress
# Time        	patch         	min           	max           
2.000000e+02	wall	(-1.448936e-09 -3.933936e-09 -8.831242e-10)	(2.149121e-09 1.906581e-09 9.164680e-09)
