# Wall shear stress
# Time        	patch         	min           	max           
0.000000e+00	wall	(-1.897540e-09 -2.252899e-10 -1.017108e-09)	(1.690170e-09 3.362137e-10 1.135835e-09)
