# Wall shear stress
# Time        	patch         	min           	max           
1.500000e+02	wall	(-1.448936e-09 -3.933936e-09 -8.831242e-10)	(2.221275e-09 2.033133e-09 9.560160e-09)
