# Wall shear stress
# Time        	patch         	min           	max           
1.000000e+02	wall	(-1.448936e-09 -3.933935e-09 -8.831214e-10)	(2.455008e-09 2.503073e-09 1.044985e-08)
