# Wall shear stress
# Time        	patch         	min           	max           
2.500000e+02	wall	(-1.448936e-09 -3.933936e-09 -8.831242e-10)	(2.136089e-09 1.856320e-09 9.030878e-09)
