# Wall shear stress
# Time        	patch         	min           	max           
3.950000e+02	wall	(-1.448936e-09 -3.933936e-09 -8.831242e-10)	(2.138319e-09 1.837532e-09 8.986110e-09)
