# Wall shear stress
# Time        	patch         	min           	max           
3.000000e+02	wall	(-1.448936e-09 -3.933936e-09 -8.831242e-10)	(2.136532e-09 1.841294e-09 8.993411e-09)
