/*--------------------------------*- C++ -*----------------------------------*\
  =========                 |
  \\      /  F ield         | OpenFOAM: The Open Source CFD Toolbox
   \\    /   O peration     | Website:  https://openfoam.org
    \\  /    A nd           | Version:  7
     \\/     M anipulation  |
\*---------------------------------------------------------------------------*/
FoamFile
{
    version     2.0;
    format      ascii;
    class       volScalarField;
    location    "1.425";
    object      p;
}
// * * * * * * * * * * * * * * * * * * * * * * * * * * * * * * * * * * * * * //

dimensions      [0 2 -2 0 0 0 0];

internalField   nonuniform List<scalar> 
144198
(
0.00277995
0.0028096
0.0041288
0.00349463
0.00266585
0.00263205
0.00347283
0.00279717
0.00409321
0.0026714
0.00353586
0.00234351
0.0022475
0.00227668
0.00231802
0.00444185
0.00242437
0.00414116
0.00359078
0.00343126
0.00444844
0.00365199
0.0028078
0.00284358
0.00409362
0.00294862
0.00235868
0.00345414
0.00266025
0.00247734
0.00245109
0.00341659
0.00225532
0.00271365
0.00222904
0.00227942
0.00338713
0.00239281
0.00263329
0.00243933
0.00249058
0.00264824
0.00270227
0.00355124
0.00211154
0.0028724
0.00277441
0.00388942
0.00238857
0.00227467
0.0027538
0.00244837
0.00362318
0.00280018
0.00266467
0.00233271
0.0032852
0.00225486
0.00262956
0.0026374
0.00262553
0.00264839
0.00387458
0.00415517
0.00360393
0.00251425
0.00445303
0.00236131
0.00356801
0.00349414
0.0034018
0.00267633
0.00414573
0.00283653
0.00364018
0.00277682
0.00335212
0.00417575
0.00429703
0.00335691
0.00262407
0.00218966
0.00268347
0.00422067
0.00242094
0.00269912
0.00356327
0.00233397
0.00235826
0.0044959
0.00228451
0.00240479
0.00453183
0.00233354
0.00326661
0.00226982
0.00466253
0.00249022
0.002649
0.00248548
0.00233816
0.00247192
0.0045296
0.00275731
0.00419998
0.00358349
0.00240002
0.00227073
0.00230389
0.0036083
0.00305727
0.00367601
0.00235901
0.00248913
0.00358247
0.00342805
0.00285464
0.00328606
0.00414817
0.0025478
0.00229346
0.00266128
0.00453032
0.00357467
0.00413507
0.00260721
0.00269854
0.00394598
0.00344899
0.00292329
0.00395182
0.00255589
0.00362521
0.00344056
0.00263106
0.0024935
0.00391152
0.00246664
0.00274568
0.00321305
0.00326598
0.0033597
0.00293019
0.00284728
0.00246048
0.00257207
0.00333953
0.00293772
0.00382412
0.00288284
0.00279508
0.00234166
0.00304241
0.00413564
0.00438278
0.00252459
0.00245904
0.00260065
0.0041659
0.00231564
0.00444573
0.00230208
0.00363093
0.00344715
0.00250314
0.00242151
0.00352423
0.00378321
0.00423075
0.00335445
0.00396313
0.00345645
0.00252439
0.00240387
0.00308717
0.00326324
0.00384162
0.00335696
0.00237215
0.00310375
0.00333356
0.00225972
0.00330075
0.00312772
0.0026351
0.00462809
0.00355119
0.00394591
0.00268865
0.00263407
0.00363228
0.003217
0.00251874
0.00328595
0.00336097
0.00259585
0.00306802
0.00326762
0.00296451
0.00328078
0.00463224
0.00416937
0.00370339
0.00235621
0.00414321
0.00355921
0.0039419
0.00365488
0.00366459
0.00364564
0.00303958
0.00450247
0.00317241
0.00287219
0.0023131
0.00237943
0.00288028
0.00337866
0.00224188
0.00245839
0.00343302
0.00393172
0.00296105
0.00243709
0.00454511
0.00260113
0.00227742
0.0021557
0.0034957
0.00278843
0.00272622
0.00285186
0.00376445
0.00383404
0.00383807
0.00328626
0.00417584
0.00289294
0.00329834
0.00334595
0.00419537
0.00411303
0.00266809
0.00232401
0.0023044
0.00446544
0.00386828
0.00349363
0.00325329
0.00344039
0.00351241
0.00250067
0.00333622
0.00261053
0.00373394
0.00358917
0.00354381
0.00244021
0.00323218
0.00334923
0.00289243
0.00455549
0.00312798
0.00284824
0.00416534
0.00335633
0.00231763
0.002755
0.00247652
0.0024098
0.00254284
0.0024162
0.00313041
0.00256992
0.00221428
0.00425517
0.00440993
0.00360191
0.00267798
0.00467345
0.00229381
0.00449834
0.00246609
0.00354585
0.00334409
0.00450378
0.00392666
0.00365828
0.00338355
0.00226777
0.00240841
0.00454495
0.00239207
0.0036604
0.00352528
0.0026681
0.00362619
0.00412219
0.00234862
0.00263032
0.00398475
0.00354623
0.00259308
0.00361436
0.00353281
0.00342643
0.0027003
0.00261094
0.00334692
0.00361985
0.00263688
0.00416806
0.00455207
0.00290538
0.00458164
0.00266975
0.00421803
0.002238
0.00392998
0.00380355
0.0023935
0.00434732
0.00344573
0.00271979
0.00235697
0.00394935
0.00334836
0.00361801
0.00331447
0.00410927
0.00311423
0.00388953
0.00230672
0.00247619
0.00249075
0.00387961
0.00346767
0.0043099
0.00266833
0.00360408
0.00230143
0.00292734
0.00326254
0.00258972
0.00240444
0.00296599
0.00250249
0.00347588
0.00352493
0.00240809
0.00303546
0.0023804
0.00425563
0.00230163
0.00336415
0.00231643
0.00417506
0.00342634
0.00332336
0.00442599
0.00467247
0.00344333
0.00249511
0.00428444
0.00452371
0.00437395
0.00367973
0.00341371
0.00253
0.00241239
0.00246623
0.00305942
0.00228546
0.00358949
0.00339008
0.00232165
0.00352982
0.00217409
0.00442141
0.00335273
0.00403648
0.00238246
0.00260299
0.0044139
0.00266407
0.00217504
0.00253123
0.00372278
0.00285581
0.0033316
0.00356608
0.00346552
0.00327698
0.00355648
0.0028232
0.00297001
0.00246101
0.00306184
0.00257686
0.00224633
0.00226869
0.00465016
0.00343553
0.00393903
0.00227624
0.00292216
0.00330671
0.00364979
0.00431084
0.00279042
0.00392777
0.00336004
0.00347382
0.00224942
0.00380165
0.00275822
0.00340127
0.00265067
0.00419793
0.00301179
0.00336118
0.00443631
0.00397387
0.00239085
0.00221385
0.0028307
0.00309657
0.00222889
0.00387
0.00313193
0.00231854
0.00315759
0.00385124
0.00256409
0.00251555
0.00306645
0.00256062
0.00350947
0.00353284
0.00230168
0.00326109
0.00321675
0.00399284
0.00443762
0.00221606
0.00237253
0.00440104
0.0024027
0.00350334
0.00435939
0.00296373
0.0032335
0.00382868
0.00292291
0.00417164
0.00325234
0.00399364
0.00218169
0.00407402
0.00242208
0.00339064
0.0024747
0.00251509
0.0029308
0.00269725
0.00289957
0.00303089
0.00443793
0.00443662
0.00216896
0.00287147
0.00279777
0.00464044
0.00324138
0.00248395
0.00281327
0.00222306
0.00469178
0.00334105
0.00234525
0.00411512
0.00251149
0.00272712
0.00270347
0.00246123
0.00397547
0.00278367
0.00271209
0.00410899
0.00389314
0.00350065
0.00441306
0.0033093
0.00439124
0.00427449
0.00396835
0.00376278
0.00343835
0.00360962
0.00371891
0.0031598
0.00457603
0.00227631
0.00234502
0.00323565
0.0022376
0.00271898
0.00416201
0.00227614
0.00239651
0.00231469
0.0024413
0.00268113
0.00334298
0.00343101
0.00444775
0.00304648
0.00388701
0.00295982
0.00230352
0.00441688
0.00301312
0.00244093
0.00401327
0.00356462
0.00324581
0.00388734
0.00252332
0.00317834
0.00340732
0.00407094
0.00327571
0.00251656
0.00439765
0.00290151
0.00245399
0.00246097
0.00397686
0.00241017
0.00263347
0.00326869
0.0024151
0.00350787
0.00242953
0.00220241
0.00293301
0.00278356
0.0035312
0.00218977
0.00376176
0.00407727
0.00240894
0.00336085
0.00222113
0.00363099
0.00375227
0.00316181
0.00231727
0.00329063
0.00323227
0.0038833
0.00278213
0.00426602
0.00379184
0.00307625
0.00464484
0.00443569
0.00284057
0.00350869
0.00285696
0.00444311
0.00348468
0.00230566
0.00441775
0.00453502
0.00388009
0.00306921
0.00237944
0.00275527
0.00309836
0.00336732
0.00273118
0.00226534
0.00353444
0.00250073
0.00241232
0.00359782
0.00352671
0.00324019
0.00380324
0.00331555
0.00388989
0.00247318
0.00324854
0.00301231
0.00287068
0.00252418
0.00350564
0.0028985
0.00263959
0.00451978
0.00281261
0.00280855
0.00359213
0.00358469
0.0031988
0.00222456
0.00444448
0.00227257
0.00475777
0.00277046
0.00378712
0.0034828
0.00247686
0.00265913
0.00231119
0.00333016
0.00302638
0.00315641
0.00269254
0.00244105
0.00375451
0.00340837
0.00420841
0.00288218
0.00287944
0.00317048
0.00219074
0.00435641
0.00276456
0.00289845
0.00231332
0.00366756
0.00428857
0.0029824
0.00339683
0.0029284
0.00308124
0.00228091
0.00287255
0.00384219
0.00284049
0.00343199
0.00261471
0.00374316
0.00225818
0.00389588
0.00260155
0.00261477
0.00277771
0.00267317
0.00283021
0.00332403
0.00218616
0.00288375
0.00250561
0.00366351
0.00408696
0.00435062
0.00290125
0.00313065
0.0022425
0.0022866
0.0022992
0.00218275
0.00225406
0.00294281
0.00431381
0.00233733
0.00292071
0.0022606
0.00284713
0.00246715
0.00323265
0.00282456
0.00369279
0.00271002
0.00258884
0.0033507
0.00269339
0.00306379
0.00312889
0.0042459
0.00313703
0.00259171
0.00222743
0.00307
0.00223296
0.00230765
0.0041117
0.00417692
0.00376762
0.00449653
0.00379265
0.00407979
0.0044091
0.00369209
0.00440844
0.00261689
0.00225529
0.00290197
0.00339681
0.00232584
0.00246142
0.00239818
0.00335657
0.00222999
0.00231606
0.00363279
0.00346009
0.00380186
0.00422568
0.0024302
0.00270251
0.0023815
0.00365315
0.00231627
0.00417754
0.004501
0.00435218
0.00430768
0.00425653
0.0031549
0.00231754
0.00344215
0.00329458
0.00351429
0.00292098
0.00234225
0.00235386
0.00454914
0.00303584
0.00378829
0.00264216
0.00253605
0.00244657
0.00445277
0.00284321
0.00257563
0.00300436
0.00344764
0.00247021
0.00305473
0.00238554
0.00449708
0.00229335
0.00386322
0.00404994
0.00451647
0.00440592
0.00313262
0.00225994
0.00460124
0.00225875
0.00345694
0.00431571
0.00338869
0.00253056
0.00460313
0.00236132
0.00229973
0.00222025
0.00236768
0.00301678
0.00431762
0.00245402
0.00228268
0.00270842
0.00338676
0.00243223
0.00393955
0.00444692
0.00352783
0.00369715
0.00326011
0.00245246
0.0032272
0.00253263
0.00263379
0.00243999
0.00412986
0.00235858
0.00228577
0.00257355
0.0029178
0.00374946
0.00390096
0.00259989
0.00359581
0.00438681
0.00387965
0.00233113
0.00325945
0.00349994
0.00353674
0.0040881
0.00423663
0.00259763
0.00313977
0.00436388
0.00225226
0.00224911
0.00352203
0.00364107
0.00227565
0.00271488
0.00316136
0.00280595
0.00322178
0.00283587
0.00305236
0.00486727
0.00328743
0.00373612
0.00228671
0.0039047
0.00287411
0.00373392
0.00292746
0.00337946
0.00353851
0.00325794
0.00443654
0.00262627
0.00241394
0.00376663
0.00284985
0.00221251
0.00263213
0.00429122
0.00268172
0.00226208
0.00215628
0.00407289
0.00226982
0.00349717
0.00249369
0.00363481
0.00406072
0.00466394
0.0023472
0.00381507
0.00314347
0.00275358
0.00288097
0.00453246
0.00278635
0.0023268
0.00312947
0.00225976
0.00277564
0.00417629
0.00340515
0.00338577
0.00270513
0.0044702
0.00276975
0.00223191
0.00381441
0.00330212
0.00313118
0.00298942
0.00396841
0.00362092
0.0043775
0.00400235
0.00336536
0.00436695
0.00247837
0.00429494
0.00268864
0.00293335
0.00452234
0.00435661
0.00226074
0.00266552
0.00259294
0.00268746
0.00246869
0.00264486
0.0046384
0.00335379
0.00440195
0.00333004
0.00451754
0.004695
0.00406024
0.00229198
0.0034805
0.00431894
0.0027718
0.00284586
0.002365
0.00324468
0.0028897
0.00248994
0.00291443
0.00343243
0.00301366
0.00267566
0.00292196
0.00340582
0.00307462
0.00310653
0.00360832
0.00445513
0.00366269
0.00453856
0.0030441
0.00310095
0.00311177
0.00415325
0.00300758
0.00289049
0.00270688
0.00228755
0.00307758
0.00239945
0.00337812
0.00460234
0.00321217
0.00225532
0.00448534
0.00404976
0.00320218
0.00403809
0.00291929
0.00220374
0.0037178
0.00437194
0.00319717
0.0039332
0.00317191
0.00355477
0.00295353
0.00236433
0.00264246
0.00317342
0.00279401
0.00258731
0.00249634
0.00466773
0.00445065
0.00250472
0.00333556
0.00438522
0.00445468
0.00239283
0.00396372
0.00285209
0.00333267
0.00265531
0.0031324
0.00357607
0.00420257
0.00226747
0.00349778
0.00219338
0.00251675
0.0036631
0.00271985
0.00231755
0.00336263
0.00296704
0.00315324
0.00294917
0.0022707
0.00341685
0.00224455
0.0024794
0.00425739
0.00285013
0.00444798
0.00331957
0.0022002
0.00352314
0.00257722
0.00291421
0.00445924
0.00252185
0.00390969
0.00366008
0.00363295
0.00245198
0.00343861
0.00268626
0.00230647
0.00332645
0.00230436
0.00306941
0.00341772
0.00259583
0.00238805
0.00302547
0.00403557
0.00224046
0.00270887
0.00359074
0.00293016
0.00248569
0.00298843
0.0027652
0.00264094
0.00458733
0.00329216
0.00222673
0.00286077
0.00390521
0.00463327
0.00364956
0.00263719
0.00236826
0.00233573
0.00326672
0.00311585
0.0032219
0.00346646
0.00359426
0.00229438
0.00215979
0.0027129
0.00233336
0.00254628
0.00316858
0.00264148
0.00424999
0.00226065
0.00302196
0.00411055
0.00470097
0.00395173
0.00223456
0.00269622
0.00324032
0.00326178
0.00446216
0.00453996
0.00312396
0.00352934
0.00306195
0.00264498
0.00449212
0.00294208
0.00290311
0.00227563
0.00462431
0.00242921
0.00403847
0.00342976
0.00281116
0.0032283
0.00318683
0.00283657
0.00436784
0.00428834
0.00317057
0.00349303
0.00448619
0.00386468
0.00387374
0.002255
0.00292698
0.00410002
0.00300582
0.00463535
0.00230066
0.00434122
0.00294027
0.00353097
0.00265948
0.00219636
0.00323145
0.00328662
0.00450772
0.00313147
0.00320411
0.00422624
0.00235382
0.00310846
0.00239122
0.00285878
0.00238328
0.00381928
0.00436789
0.00389959
0.00240285
0.00239423
0.00348236
0.00361289
0.00377649
0.00421258
0.00371604
0.00384924
0.00329013
0.00234425
0.00349025
0.00289631
0.00302366
0.0032467
0.00222914
0.00424844
0.00223908
0.003029
0.00263502
0.00374091
0.00295108
0.00257551
0.00273212
0.00289852
0.00366125
0.00425954
0.0023212
0.00442601
0.00379665
0.00243309
0.00451158
0.00389349
0.00278057
0.00334378
0.00246292
0.00222583
0.00256066
0.00258332
0.00242198
0.00388255
0.00237776
0.00228125
0.00342633
0.00262167
0.00364673
0.00386488
0.00278006
0.0022591
0.00437985
0.0033446
0.0036658
0.00399214
0.0043769
0.00423661
0.00362519
0.00361476
0.00300882
0.00439754
0.00337254
0.00417576
0.00229385
0.00241354
0.00327147
0.0022646
0.00326893
0.0026158
0.00286594
0.0031289
0.00230175
0.00242157
0.00306262
0.00242065
0.00460647
0.00258201
0.00241441
0.00339418
0.0028657
0.00231472
0.00312897
0.00240415
0.00264285
0.00448877
0.00321276
0.00230093
0.00282454
0.00293198
0.0036889
0.00407263
0.00298274
0.0030108
0.00265519
0.00272466
0.00307054
0.00471445
0.0046098
0.00326882
0.00348166
0.00316447
0.00372262
0.00377958
0.00254904
0.00260421
0.0045439
0.00247796
0.00379151
0.00451229
0.00340508
0.00368704
0.00279057
0.00450285
0.00309883
0.00379551
0.00348091
0.00236967
0.00430907
0.00436493
0.00309615
0.0028065
0.00274796
0.00285179
0.00366561
0.00388965
0.00419725
0.00354348
0.00417595
0.00358875
0.00338682
0.00298872
0.00295596
0.00318541
0.00296682
0.00223903
0.00338388
0.00375175
0.00224577
0.00230057
0.00266462
0.00220074
0.00455899
0.00220097
0.00302812
0.00325288
0.00347819
0.0040696
0.00235458
0.00325705
0.00408665
0.00274743
0.00406305
0.00300503
0.00233183
0.00230022
0.00225842
0.00311608
0.00438773
0.00316942
0.00421556
0.00251744
0.00226402
0.00264108
0.00428873
0.00449779
0.00256243
0.00337139
0.0033603
0.00297274
0.00238142
0.00258992
0.00282553
0.00458948
0.00308249
0.00353725
0.00283853
0.00231192
0.00347388
0.0045335
0.00408947
0.00242237
0.0030289
0.00421107
0.00269868
0.00387866
0.00266632
0.00293522
0.00254358
0.00357068
0.0040677
0.0022256
0.0030524
0.00335077
0.00386817
0.00227858
0.00422624
0.00326759
0.00271106
0.00236147
0.00452382
0.00435918
0.00262993
0.00227171
0.00450715
0.00321394
0.00305047
0.0031386
0.00369331
0.00423565
0.00473868
0.00376335
0.00249534
0.00430927
0.002663
0.00229405
0.00398335
0.0038441
0.00341908
0.00311573
0.00228455
0.00441937
0.00429844
0.00236447
0.0034645
0.00442638
0.00248132
0.00471354
0.00262848
0.0022948
0.00313527
0.00382643
0.00454593
0.00228802
0.00261491
0.00310246
0.00319777
0.00226677
0.00287108
0.00254624
0.00348156
0.00290141
0.00228915
0.00239513
0.00435882
0.00383342
0.00433554
0.00424001
0.00432404
0.00408644
0.00304691
0.0043752
0.00459463
0.00291104
0.00469068
0.00354519
0.00439668
0.00282365
0.00368911
0.00305385
0.00314204
0.0043607
0.00391266
0.00401727
0.00229375
0.00379714
0.0027507
0.00263731
0.00275073
0.00396078
0.00334602
0.00396085
0.00331132
0.00315489
0.0029341
0.00245206
0.00349811
0.0026633
0.00372406
0.00226847
0.00307304
0.00220976
0.00222306
0.00428925
0.00341851
0.00382302
0.00245826
0.00396918
0.00417075
0.00241714
0.00343218
0.00428266
0.004024
0.00306603
0.00330736
0.00368955
0.00223504
0.00268841
0.00437816
0.00246957
0.00330322
0.00293711
0.0030296
0.00252752
0.00394155
0.00321567
0.00241802
0.0034949
0.00287303
0.00346107
0.0030047
0.00472452
0.00262991
0.00227313
0.0035003
0.00300956
0.0040665
0.00224354
0.00372641
0.00303803
0.00318153
0.00324327
0.00243164
0.00389073
0.00312244
0.00228398
0.00430797
0.00305509
0.00269015
0.00262238
0.00365853
0.002373
0.0034047
0.0022711
0.00229708
0.002373
0.00233097
0.003906
0.0043052
0.00442151
0.00376645
0.00222009
0.00298084
0.00351936
0.00239062
0.00229594
0.00230633
0.00297906
0.00468855
0.00289537
0.00381919
0.00260887
0.00359043
0.00263266
0.0035553
0.00322432
0.00388329
0.00337736
0.00318653
0.00393249
0.00254526
0.00228171
0.00225911
0.00277133
0.00383934
0.00293523
0.00229861
0.0022739
0.00314269
0.00448506
0.0038651
0.0022866
0.00233475
0.00229437
0.00478362
0.00374739
0.00438945
0.00237286
0.00227293
0.00307781
0.00354479
0.0023554
0.00245792
0.00413359
0.00359438
0.00307721
0.00223738
0.00246343
0.0025904
0.00305222
0.00244584
0.00311218
0.00227729
0.00302679
0.00299358
0.00221922
0.00360288
0.00221257
0.0027234
0.00232605
0.00264497
0.0026941
0.00353604
0.00266586
0.0032423
0.00343273
0.00343249
0.00457086
0.00380846
0.00403282
0.00281862
0.00235314
0.00364292
0.0024277
0.00403214
0.00393091
0.00388317
0.00456292
0.0034512
0.00229024
0.00381637
0.00383445
0.00273393
0.00226958
0.00227083
0.00346648
0.00287678
0.00288634
0.00444404
0.00283812
0.00353658
0.0042052
0.0038211
0.00228493
0.00283645
0.00439563
0.00362205
0.00225984
0.00334938
0.00262729
0.00437405
0.00254934
0.00299292
0.00244721
0.0022782
0.00438891
0.00318737
0.00409062
0.00227271
0.00385623
0.00336216
0.00439024
0.00226488
0.00381074
0.00217989
0.00262746
0.00304154
0.00231131
0.00227477
0.00301105
0.00284452
0.00432805
0.00352282
0.00218303
0.00372181
0.00251449
0.00257188
0.00330596
0.00267479
0.0034672
0.00397834
0.00223625
0.00223872
0.00239474
0.00372919
0.0024305
0.00256113
0.00252963
0.0032013
0.00216308
0.00359512
0.00448025
0.00305302
0.00278417
0.00276274
0.00243596
0.0044151
0.00381861
0.00447184
0.00305119
0.00267272
0.00259219
0.00346413
0.00388214
0.00323844
0.00335137
0.00298108
0.0022995
0.00322609
0.00450499
0.00225301
0.00274046
0.00348174
0.00276235
0.0025747
0.00412624
0.0036627
0.00228161
0.00227624
0.0039903
0.0027892
0.00244734
0.00245194
0.00277581
0.00382616
0.00455305
0.00361771
0.00337912
0.00344002
0.00376709
0.00379463
0.00230776
0.00227737
0.00227161
0.0026379
0.00383594
0.00243737
0.00377034
0.0046345
0.00240807
0.00233155
0.00224487
0.00227965
0.00298837
0.00364886
0.00228883
0.00441023
0.00237854
0.00325117
0.00454862
0.00258135
0.0035126
0.00250753
0.0029743
0.00248618
0.00339236
0.00409192
0.00369826
0.00224993
0.00438762
0.00334817
0.00259634
0.00305013
0.0040316
0.00262405
0.00243754
0.00356257
0.00231349
0.00287905
0.00364574
0.00384798
0.00287318
0.0040174
0.00281365
0.002694
0.00409178
0.00244085
0.00429049
0.00381565
0.00476451
0.00419071
0.00337482
0.00459028
0.00455842
0.00300519
0.00287034
0.00363715
0.00455573
0.00474363
0.00256289
0.00232675
0.00335755
0.00363614
0.00399142
0.00226004
0.00296355
0.00380743
0.00366853
0.00357525
0.00447607
0.00226504
0.00345899
0.00346512
0.00301502
0.00232202
0.00264053
0.00232842
0.00385652
0.00246945
0.0046183
0.00263692
0.00433861
0.00390752
0.00393476
0.0040702
0.00262116
0.00296827
0.00235636
0.00234606
0.00254536
0.00375923
0.00386996
0.00229514
0.00228004
0.00453267
0.00279794
0.00239668
0.00257984
0.00348977
0.00318098
0.00418699
0.0041853
0.00233913
0.00443873
0.0039023
0.00224122
0.00300085
0.00286257
0.00229347
0.00229217
0.00223145
0.00229042
0.00304922
0.00302642
0.00264072
0.00228626
0.00320165
0.00349429
0.00353718
0.0041953
0.00222367
0.00347175
0.00370623
0.0036029
0.00374268
0.00408
0.00340427
0.00498599
0.00426045
0.0046173
0.0023764
0.00435252
0.0022603
0.00232473
0.00311791
0.00350954
0.00343091
0.00244211
0.00461123
0.00329837
0.00366357
0.00331424
0.00291545
0.00352188
0.00225461
0.00275633
0.00419656
0.0028948
0.0043599
0.00269812
0.00230593
0.00225445
0.00400918
0.00445541
0.00327169
0.00240144
0.00246824
0.0029323
0.00346749
0.00357233
0.00451104
0.00226709
0.00310396
0.00435749
0.00244702
0.0021732
0.00224631
0.00285368
0.00258257
0.00437439
0.0031624
0.00302031
0.00230464
0.00282086
0.00234939
0.00273137
0.00346279
0.0031707
0.00241976
0.00232048
0.00471299
0.00398864
0.00305602
0.00226836
0.00385895
0.00433557
0.00278136
0.00335399
0.00307234
0.00452645
0.00346383
0.00292207
0.00296936
0.00237651
0.00420088
0.00436679
0.00289441
0.00228311
0.00381379
0.00226788
0.00297417
0.00296601
0.00283047
0.0034867
0.002291
0.00273629
0.00254912
0.002772
0.00436206
0.00440266
0.00214936
0.00432111
0.00416024
0.00364065
0.00230426
0.00279232
0.00230019
0.00351735
0.00248107
0.00240437
0.00334059
0.00353848
0.00233509
0.00439898
0.00399966
0.00295724
0.00407312
0.002931
0.0030743
0.0026907
0.00306013
0.00231065
0.00320546
0.00435926
0.00348841
0.00295961
0.00365004
0.0036844
0.00386951
0.00248206
0.0044987
0.00412563
0.00254173
0.00213516
0.00269661
0.00267143
0.00259652
0.00295173
0.00254879
0.00264139
0.00438137
0.003494
0.00409758
0.00324829
0.00430622
0.00447773
0.00271085
0.00429167
0.00341638
0.00278773
0.00223296
0.00234178
0.00440645
0.00402816
0.0035015
0.00419799
0.00422369
0.00229183
0.0027746
0.00227669
0.00386749
0.00239769
0.00322355
0.00413251
0.00254568
0.00409712
0.00412449
0.00271994
0.00378135
0.00285196
0.00445124
0.00355726
0.00263778
0.00378371
0.00430338
0.00270181
0.00252837
0.00282086
0.00224552
0.00330261
0.00354064
0.00375426
0.00426303
0.0038017
0.00225997
0.00227066
0.00325506
0.00468522
0.00312876
0.00394531
0.00288964
0.00373729
0.00367725
0.00424713
0.00444328
0.00226161
0.00258462
0.00290139
0.00240982
0.00438684
0.00225736
0.00266788
0.002605
0.00464887
0.00287255
0.00435037
0.003223
0.00225785
0.00225519
0.00269983
0.00225513
0.00220578
0.00399808
0.0022858
0.0023042
0.00438707
0.00254587
0.00450328
0.00228993
0.00302581
0.00244068
0.00303943
0.00340327
0.00355023
0.00276095
0.00317749
0.00422796
0.00378206
0.00348353
0.00270687
0.00244056
0.00322585
0.00263272
0.00233797
0.00365966
0.00384547
0.00305541
0.00235701
0.00245717
0.00428534
0.00252521
0.00356602
0.00253965
0.00434339
0.0030698
0.00220932
0.00214389
0.00441693
0.00451414
0.0039303
0.00332565
0.00370404
0.00226863
0.00391404
0.00314074
0.00420977
0.0033008
0.00306588
0.00411337
0.00428431
0.00291213
0.00251612
0.00416017
0.0022523
0.00369184
0.00266654
0.00259404
0.00386923
0.00290367
0.00341803
0.00340993
0.00266184
0.00227231
0.00333452
0.00287368
0.00410941
0.00420323
0.00444368
0.00280194
0.00376683
0.00264797
0.00390639
0.00272186
0.00476209
0.00251492
0.00464077
0.00285025
0.00226779
0.00220482
0.00414178
0.00316449
0.00442249
0.00357349
0.00224296
0.00225549
0.00456288
0.00383363
0.00253685
0.0033594
0.00386188
0.00372743
0.00326419
0.00423119
0.0033916
0.00225165
0.00441851
0.00359097
0.00376839
0.00320985
0.00247226
0.0033874
0.00379852
0.00349132
0.00362346
0.0032768
0.00403107
0.00266755
0.0022908
0.00456611
0.00428833
0.00241479
0.00307216
0.0025886
0.00334084
0.00350062
0.00235052
0.0033429
0.00392046
0.00246271
0.00454351
0.00437623
0.00397666
0.00334367
0.0022763
0.00225244
0.00422333
0.00226224
0.00249394
0.00238226
0.00251675
0.00433666
0.00229357
0.00251011
0.00225109
0.00412452
0.00266699
0.00319469
0.00269718
0.00389457
0.00360711
0.0022274
0.00219107
0.00426275
0.00267853
0.00303625
0.00409628
0.00227321
0.00223544
0.00250567
0.0030258
0.00273827
0.00248814
0.00318328
0.00308596
0.00234189
0.00314868
0.00441938
0.00250417
0.00240373
0.0034641
0.00370606
0.00331286
0.00425592
0.00273028
0.00239881
0.00221514
0.00357729
0.00467876
0.00423909
0.0031616
0.0042274
0.00418648
0.0023569
0.00296839
0.00225384
0.00420651
0.00224622
0.00386253
0.00235373
0.00312849
0.00297527
0.00218859
0.00296962
0.00266339
0.00442824
0.00433644
0.00329588
0.00296886
0.00229573
0.00313595
0.0022406
0.00404917
0.00421151
0.00397992
0.00269654
0.00247209
0.00266232
0.00339873
0.00231284
0.00238196
0.00275169
0.00233785
0.00371705
0.00397906
0.00235568
0.00296264
0.0024193
0.00224621
0.00292112
0.00306155
0.00392637
0.00270625
0.00240954
0.00448683
0.00450938
0.00415811
0.00331298
0.00359829
0.00272972
0.00232634
0.00393903
0.00270073
0.004192
0.00215079
0.00455008
0.00443451
0.00299562
0.00442199
0.0026652
0.00450333
0.00373141
0.00357011
0.00278321
0.00399193
0.00218891
0.00313205
0.00225166
0.00230073
0.00403465
0.00418765
0.00362993
0.00427606
0.00243293
0.002497
0.00234552
0.0035532
0.00417977
0.00299447
0.00386542
0.00442085
0.00342955
0.00390506
0.00307368
0.00288094
0.0032995
0.00344946
0.0034688
0.00472755
0.0049432
0.00278797
0.00401692
0.0022586
0.00275868
0.00415138
0.00393029
0.00333814
0.00360379
0.00347269
0.00346781
0.0023682
0.0044029
0.00266423
0.00324907
0.00239065
0.00235106
0.00280249
0.00387777
0.00221642
0.00230654
0.00473828
0.00430784
0.00229842
0.00346124
0.00266372
0.00275962
0.00230417
0.00339118
0.00353895
0.00292811
0.00313536
0.00355938
0.00278713
0.00230126
0.00230582
0.00234004
0.00349655
0.00251165
0.00360454
0.0030366
0.00297138
0.00288143
0.00341669
0.00250982
0.00324598
0.0022667
0.00290352
0.00259894
0.00231785
0.0046612
0.00343622
0.00454978
0.00224069
0.00446676
0.00451792
0.00235596
0.00259378
0.00227824
0.00398638
0.00350157
0.00443237
0.00224991
0.00342502
0.00229771
0.00258102
0.00444059
0.00267153
0.00324986
0.00412472
0.00383485
0.00306737
0.00334171
0.00401146
0.00439627
0.00230221
0.00276168
0.00457214
0.00312133
0.00267131
0.00389162
0.00431678
0.00424071
0.00406925
0.00232614
0.00284357
0.00434897
0.00284799
0.00233201
0.00403848
0.0037987
0.00314004
0.00319338
0.00245747
0.00389119
0.00277622
0.00227789
0.00303269
0.00303872
0.00239037
0.0044463
0.00359366
0.00270106
0.00427471
0.00274721
0.00233935
0.00235938
0.00408381
0.00430545
0.003926
0.00424079
0.0026128
0.00248233
0.00223319
0.00318825
0.00279579
0.00399434
0.004442
0.00242255
0.00362702
0.00228938
0.0022388
0.00346002
0.00360527
0.00232873
0.0024566
0.00233357
0.00227362
0.00255826
0.00333873
0.0029022
0.00430671
0.00390573
0.00227099
0.00296746
0.00255563
0.00370788
0.00248516
0.0025014
0.00338143
0.00335476
0.00399593
0.00401593
0.00293758
0.0044277
0.00312373
0.00339299
0.00234753
0.00307069
0.00243604
0.00235946
0.00344412
0.0037466
0.0038388
0.00308448
0.0032619
0.0033427
0.00322311
0.00386998
0.00248845
0.00389282
0.00243564
0.00344539
0.00327131
0.00243663
0.00346479
0.00237725
0.00349265
0.00320799
0.00278474
0.00467902
0.00376133
0.00227353
0.0043281
0.0044103
0.00359058
0.00296552
0.00386182
0.0023068
0.00356127
0.00260272
0.00226413
0.00411539
0.00446492
0.00301141
0.00458994
0.00284623
0.00390401
0.004456
0.0025777
0.00336856
0.00431669
0.00438568
0.00244725
0.00382688
0.0044078
0.00481087
0.00433606
0.00222169
0.00409385
0.00433867
0.00443248
0.00329903
0.00348572
0.00353552
0.00291942
0.0028541
0.00297438
0.00430374
0.00252196
0.00376117
0.00444358
0.00392471
0.0031927
0.00468295
0.00235016
0.00442338
0.00384325
0.00392256
0.00230634
0.00238422
0.00441609
0.00432763
0.00251496
0.00300709
0.00304355
0.00285863
0.00455283
0.00234525
0.00365344
0.00361517
0.00225768
0.0043744
0.00281507
0.00421319
0.00395656
0.0023143
0.00227957
0.00376315
0.00302567
0.00382182
0.00224965
0.00426289
0.0022623
0.00373331
0.00234292
0.00373102
0.00411164
0.00396957
0.00453389
0.00233708
0.00419923
0.00232166
0.00432483
0.00346172
0.0027552
0.00459381
0.0041405
0.00423858
0.00402988
0.00435404
0.00303054
0.00313534
0.00292768
0.00263555
0.00439741
0.00409391
0.00403343
0.00412707
0.00228415
0.00292499
0.00286482
0.00238397
0.0034054
0.00422284
0.00230002
0.00437583
0.00300494
0.00255992
0.00233946
0.00221881
0.00360314
0.00284235
0.00396514
0.00278003
0.00421138
0.00354079
0.00332216
0.00229263
0.00241598
0.00407995
0.00426894
0.0022374
0.00311047
0.00427384
0.00264591
0.0031505
0.00414002
0.00358421
0.00268552
0.00252861
0.00226262
0.00449741
0.00434318
0.00313636
0.00299257
0.00304385
0.00435805
0.00374675
0.00227119
0.00319294
0.00257414
0.00437711
0.00212372
0.00301909
0.0034334
0.00426828
0.00233525
0.00316773
0.00318122
0.00252196
0.00438287
0.0035246
0.00231073
0.00303047
0.00302308
0.00234784
0.00213719
0.0025703
0.00365564
0.00397224
0.00352219
0.00275691
0.00383944
0.00450506
0.00267602
0.00337267
0.00281749
0.00397532
0.00462099
0.00406721
0.00325511
0.00286328
0.00337405
0.00237372
0.00279859
0.00225678
0.00393088
0.00278608
0.00226438
0.00469721
0.00247814
0.00327057
0.00232343
0.00481538
0.00264982
0.00307328
0.0041987
0.0044019
0.00227436
0.00243508
0.00223415
0.0041316
0.0041333
0.00241156
0.0035503
0.00291861
0.00333915
0.00433693
0.00350385
0.00275211
0.00245732
0.0037169
0.00329456
0.00355689
0.00223586
0.00349027
0.00261879
0.00324352
0.00366867
0.00237478
0.00258436
0.00312521
0.00422015
0.00259102
0.00424629
0.0046787
0.00253835
0.00223744
0.00227719
0.00339357
0.00340471
0.00265095
0.00354862
0.00341266
0.0043716
0.00232488
0.00266638
0.00443848
0.00231593
0.00407911
0.00231889
0.00361905
0.00225551
0.00304567
0.00417402
0.00225063
0.00379812
0.00291444
0.00464097
0.0023193
0.00446467
0.00468525
0.00322515
0.00283264
0.00312395
0.00243066
0.00287926
0.0044383
0.00235215
0.00441182
0.00256561
0.00348232
0.00229867
0.00330602
0.00245355
0.0044337
0.00244692
0.00432639
0.00423418
0.00257556
0.00224769
0.00303912
0.00455358
0.00440553
0.00234791
0.00444394
0.00267246
0.00453878
0.00452186
0.00234494
0.00271775
0.00387583
0.00246389
0.00377089
0.00355349
0.00376968
0.00408575
0.00336676
0.00253886
0.00413098
0.00263265
0.00235539
0.00443423
0.0037431
0.00229634
0.00413694
0.00231525
0.00247169
0.00360231
0.00232449
0.00378181
0.00452895
0.00389268
0.00398456
0.00396559
0.00256459
0.00229319
0.00290124
0.00371849
0.00447908
0.0041444
0.00225437
0.00466669
0.00435525
0.00307525
0.00229424
0.00330228
0.00343933
0.00352652
0.00378163
0.00441879
0.00448758
0.00244956
0.00282253
0.00447405
0.00332034
0.00210443
0.00259956
0.00351252
0.00287516
0.00228278
0.00236624
0.00291839
0.00384782
0.00236361
0.0042252
0.00255683
0.00362425
0.00477231
0.00234312
0.00260105
0.00345169
0.00409179
0.00290192
0.0032086
0.00324828
0.00354541
0.0023591
0.00303838
0.00404681
0.0032793
0.00430609
0.00212079