/*--------------------------------*- C++ -*----------------------------------*\
  =========                 |
  \\      /  F ield         | OpenFOAM: The Open Source CFD Toolbox
   \\    /   O peration     | Website:  https://openfoam.org
    \\  /    A nd           | Version:  7
     \\/     M anipulation  |
\*---------------------------------------------------------------------------*/
FoamFile
{
    version     2.0;
    format      ascii;
    class       surfaceScalarField;
    location    "1.425";
    object      phi;
}
// * * * * * * * * * * * * * * * * * * * * * * * * * * * * * * * * * * * * * //

dimensions      [0 3 -1 0 0 0 0];

internalField   nonuniform List<scalar> 
278107
(
-1.30215e-09
-6.3181e-08
1.25905e-08
5.18927e-08
6.16287e-08
-6.63339e-09
-3.04571e-08
-2.45383e-08
-1.94159e-08
1.19447e-08
7.4712e-09
7.78395e-08
-4.03847e-09
-2.87748e-08
-4.50262e-08
-1.63912e-09
-8.6774e-09
-1.77512e-08
2.80677e-08
-8.39508e-08
1.62423e-08
2.40729e-08
4.36356e-08
-1.70655e-08
6.95442e-08
-7.29182e-08
2.04395e-08
-4.67841e-08
3.68059e-08
8.67608e-09
-1.83142e-08
-2.35149e-08
2.24132e-08
-2.50258e-08
-2.50761e-08
-3.38489e-08
3.71874e-08
-3.47178e-08
-7.44648e-09
4.97686e-09
6.29082e-08
-7.2191e-08
4.80941e-08
-3.88113e-08
-5.68071e-08
1.46698e-08
-2.33637e-08
6.5501e-08
3.43972e-08
3.19035e-08
-6.94702e-08
3.16947e-09
2.09079e-08
-7.41261e-08
1.33712e-08
3.9847e-08
-5.98527e-08
-1.95611e-08
4.96401e-08
2.97736e-08
-1.95257e-09
3.68167e-08
1.98297e-08
-5.46938e-08
3.22491e-08
-4.20054e-08
1.69815e-08
-7.22527e-09
4.45559e-08
-6.0253e-08
2.49109e-08
-9.21376e-09
-1.37888e-08
5.17721e-08
9.40657e-10
-3.89239e-08
1.84193e-08
-5.4258e-08
2.92117e-08
6.62694e-09
3.48385e-08
-1.28193e-08
-3.35812e-08
1.1562e-08
3.27478e-08
5.46421e-08
-4.58991e-08
-4.14908e-08
-1.2144e-08
-1.96697e-08
-1.28864e-08
4.47001e-08
-4.86208e-08
5.14101e-08
2.94598e-08
6.95528e-08
-1.20947e-09
-8.30467e-09
-6.00387e-08
3.31204e-08
1.48206e-08
-4.98936e-08
5.78719e-08
2.90212e-09
-5.09979e-08
-3.78362e-08
6.33097e-08
2.55244e-08
3.04285e-09
2.77726e-08
1.42288e-08
-4.50443e-08
-5.01294e-08
3.33343e-08
1.98379e-08
-4.4963e-09
4.85793e-08
4.10677e-08
-3.94174e-08
1.28896e-08
-1.45399e-08
-5.92942e-08
8.03641e-08
4.05589e-08
3.38495e-08
1.15242e-08
-2.4759e-08
-2.06147e-08
-5.58942e-08
4.32032e-08
4.70882e-08
2.06426e-08
3.99971e-08
-8.86759e-09
5.0402e-08
-4.56885e-08
6.12243e-08
-6.59378e-08
-3.84971e-08
-2.74306e-08
-2.30614e-08
-2.56233e-08
-1.64954e-09
5.03342e-08
4.16536e-08
-4.75065e-08
-1.72085e-08
4.49845e-08
-4.9944e-10
-4.54954e-08
1.01039e-09
5.3171e-08
-2.07662e-09
-4.6784e-08
-4.31036e-09
-7.98505e-08
6.24926e-08
1.06559e-08
6.70199e-09
3.71944e-08
-1.3305e-08
8.7695e-09
-3.26589e-08
5.90203e-08
4.30758e-09
-3.89614e-08
-2.43666e-08
5.91536e-08
3.50341e-08
-2.88804e-08
-6.53073e-08
-1.14246e-08
-1.29601e-08
1.33565e-08
1.10282e-08
3.84726e-08
6.12741e-08
-6.63564e-08
-3.33903e-08
8.19421e-08
-4.11299e-08
-8.90864e-09
7.71477e-08
-7.23759e-09
-1.07565e-08
1.92015e-09
2.09689e-08
-5.63847e-08
3.34956e-08
-6.0248e-08
4.4913e-08
7.14875e-09
8.18621e-09
-2.61821e-08
-9.92487e-09
6.88548e-08
-5.42285e-08
9.73003e-09
-6.49951e-09
-5.90756e-08
3.96657e-08
4.03178e-08
7.33609e-09
-2.52859e-08
4.1965e-09
1.37533e-08
4.14312e-08
9.75994e-09
-4.56958e-09
-4.66215e-08
-4.97764e-08
4.91701e-08
1.90547e-10
4.15811e-10
-4.85098e-08
-4.93629e-08
4.80962e-08
-4.2312e-08
-5.07527e-08
6.85739e-08
2.44908e-08
6.70028e-08
3.38405e-08
-2.04792e-08
2.3214e-08
1.99905e-10
-7.12438e-08
4.67464e-08
8.29055e-09
1.62068e-08
-1.53436e-08
-1.04358e-08
4.2213e-08
-2.35679e-08
9.12758e-09
3.4015e-08
-3.12373e-08
1.56416e-08
-9.53065e-09
-3.71206e-08
4.82695e-08
-1.61823e-09
-7.69062e-09
-3.1843e-08
6.48625e-09
3.30474e-08
6.62243e-08
-2.952e-08
-4.07428e-08
8.11566e-08
-4.63727e-08
-4.21732e-08
7.38934e-09
-7.14983e-09
1.98483e-08
-1.43376e-08
-1.58681e-08
-8.70391e-09
-4.66717e-08
-5.96552e-09
3.20041e-08
3.29818e-08
-4.26393e-08
6.95651e-09
3.38187e-08
1.86408e-09
-1.10636e-09
5.54799e-08
2.68561e-10
4.27759e-08
-1.83482e-08
1.27597e-08
-2.52366e-08
7.52858e-09
2.74375e-08
-9.72947e-09
-4.71949e-08
3.83148e-09
1.81268e-08
8.02973e-08
1.35807e-09
-4.9876e-10
-4.84075e-08
-1.08491e-08
2.14204e-08
-6.70977e-08
-1.97779e-09
1.22684e-08
-4.63753e-08
-5.62606e-08
2.86742e-09
2.94105e-08
2.16671e-10
-3.24946e-08
1.44961e-08
-3.77188e-08
2.51428e-08
1.24285e-08
-9.8315e-10
1.16038e-08
-2.30492e-08
-4.31931e-08
4.43324e-08
-7.12223e-09
5.98286e-09
2.08478e-08
-2.17808e-09
-5.3416e-08
3.47463e-08
2.60672e-08
-3.31795e-09
1.44451e-08
8.93153e-09
-1.82108e-08
-5.05734e-08
3.31921e-08
-3.90027e-09
2.99446e-08
-5.92364e-08
5.12724e-08
-3.31028e-08
4.47385e-08
2.36105e-08
7.55243e-09
-1.2089e-08
-3.27814e-08
-1.85694e-08
-2.27753e-08
-1.53211e-08
-3.10647e-08
-2.74885e-08
7.38743e-08
-4.29406e-08
-8.24238e-08
1.62418e-09
-1.88214e-08
3.42024e-09
1.3777e-08
7.69522e-08
-2.66596e-08
-5.73345e-08
7.0419e-09
8.22457e-09
-6.81591e-08
-1.85016e-09
6.17847e-08
4.87172e-08
3.86937e-08
-1.04587e-08
2.68983e-08
-2.22108e-08
1.61603e-08
5.73578e-09
-7.84776e-09
6.50885e-08
-6.29766e-08
-1.26716e-08
2.04207e-09
8.82684e-08
-4.10525e-08
-1.21817e-08
7.88899e-10
-5.42085e-08
2.8905e-08
2.45146e-08
-4.45031e-08
3.44636e-08
2.34892e-09
-1.14061e-08
-7.78435e-09
5.23109e-08
-5.08194e-08
8.4772e-08
4.79895e-08
-4.81071e-08
4.05096e-08
-7.40411e-08
8.16386e-08
-2.60435e-08
-2.97143e-08
-2.40928e-08
-3.77046e-08
5.48383e-08
1.51793e-08
-3.2313e-08
-2.63625e-08
4.30317e-08
-7.69172e-08
-4.86108e-08
4.43076e-08
-5.22743e-09
1.6801e-08
-9.76634e-09
-5.7164e-08
-4.78097e-08
2.76383e-08
6.47272e-08
-6.72783e-08
1.36367e-08
4.91453e-08
5.86329e-08
-3.37327e-08
-2.05926e-08
-1.66806e-08
3.10883e-08
-2.75605e-08
1.31528e-08
-4.42695e-08
2.98382e-08
3.22521e-08
-1.78207e-08
7.48792e-08
-9.0777e-08
-1.45361e-08
3.0434e-08
1.85825e-08
4.42489e-08
-2.96394e-08
-7.86824e-08
7.78356e-08
1.20948e-09
-3.6275e-10
2.57093e-08
1.01188e-08
-1.22176e-08
8.49301e-09
1.40686e-08
1.92228e-08
-4.17844e-08
4.50442e-08
-4.03032e-08
1.44266e-08
4.78852e-08
3.6009e-10
-6.26719e-08
-2.94047e-08
-3.85831e-08
2.94908e-08
-4.78308e-09
4.18273e-08
-4.25451e-08
5.50091e-09
4.41966e-08
2.67884e-08
-5.06116e-08
-2.03734e-08
5.86211e-08
5.65077e-08
-4.73024e-08
-6.78264e-08
1.22411e-09
1.34773e-08
9.43375e-09
-2.41352e-08
1.26159e-09
-1.99266e-10
-1.50515e-08
1.39891e-08
-6.80358e-09
-1.46369e-08
-3.88125e-08
-4.26567e-08
4.49226e-08
2.8157e-08
8.3957e-09
8.43171e-09
-7.70639e-10
1.95367e-08
-1.75045e-08
8.17499e-08
-2.73194e-08
-2.75247e-08
-2.69058e-08
-7.17355e-08
6.3231e-08
-1.81551e-08
5.17694e-09
2.97478e-08
-2.24962e-08
-2.75209e-08
-5.1383e-08
7.55444e-08
3.35947e-09
-7.71807e-09
2.56495e-08
-4.54523e-08
4.39954e-08
4.76531e-08
-1.13513e-08
3.01875e-08
9.06768e-10
-3.16456e-08
5.513e-10
-1.07777e-09
3.0921e-08
3.44232e-10
1.55095e-08
8.72778e-09
1.68304e-08
-1.03059e-08
9.33597e-09
3.92459e-08
-5.38838e-08
-2.04272e-09
4.39894e-08
3.93289e-09
-4.79059e-08
-1.63457e-11
-3.37826e-08
-1.06339e-08
-2.23277e-08
6.67442e-08
2.54724e-08
2.7195e-08
-2.01247e-09
-3.1325e-08
2.88038e-09
-1.24063e-08
5.46159e-08
-3.73693e-09
-1.14835e-08
6.47353e-08
-6.87408e-08
1.54891e-08
-1.02768e-08
6.70021e-09
5.57095e-09
-4.78275e-08
6.00384e-09
3.62527e-08
6.57636e-08
-3.50463e-08
4.41618e-08
8.01823e-08
-2.70052e-09
-4.70579e-08
-3.04239e-08
-2.30439e-08
5.50876e-09
-2.64668e-09
2.01818e-08
3.66649e-08
-3.25383e-08
-4.83962e-08
3.88325e-08
1.8566e-08
3.87563e-09
-4.0875e-08
4.17261e-08
-1.72038e-08
1.63526e-08
-2.76584e-09
4.33464e-09
-1.21663e-08
1.05975e-08
3.24631e-08
-5.58132e-08
6.32363e-08
1.96122e-08
-1.66242e-08
-3.45934e-08
-4.43396e-08
7.19753e-09
4.96677e-08
-2.42571e-08
-3.15449e-08
-9.48126e-10
-2.22479e-09
-2.75834e-08
7.14128e-08
-5.097e-08
7.14066e-09
1.85028e-08
7.21671e-10
-1.63571e-08
-4.90182e-08
5.69864e-08
2.31202e-08
-1.30914e-08
8.30829e-09
-1.99994e-08
1.25529e-08
-3.33781e-08
-1.55567e-08
2.33115e-08
5.50087e-08
6.7614e-08
-4.24403e-08
-3.14293e-08
1.21809e-08
-2.65098e-09
2.18994e-08
5.97532e-08
-5.71921e-08
1.70604e-08
-1.96215e-08
-5.49296e-09
-5.93349e-10
-1.7474e-08
2.35603e-08
-1.29954e-08
1.45299e-08
-1.63854e-08
1.4851e-08
7.18402e-08
-6.56965e-08
-5.0948e-10
-5.63419e-09
1.19628e-08
5.59617e-08
-2.72884e-08
-4.06361e-08
-2.44876e-08
1.47153e-08
1.03006e-08
3.79795e-08
-3.41088e-08
-1.41713e-08
3.09112e-08
1.34615e-08
-2.86635e-09
-4.15063e-08
3.14534e-08
-1.53018e-08
-4.18878e-09
-4.95419e-08
3.57938e-08
2.99905e-08
-1.42579e-08
2.94758e-08
3.52799e-09
-1.87459e-08
-1.16987e-08
2.0035e-08
-1.85011e-09
1.4126e-08
-2.76304e-08
1.47285e-08
-1.24986e-08
-3.54386e-08
-3.07451e-08
6.3414e-09
4.57435e-08
-4.38603e-08
-5.38841e-08
4.47775e-08
5.40196e-08
-4.75803e-08
2.02809e-08
-3.49668e-08
6.22662e-08
2.803e-08
1.14301e-08
-2.92574e-08
-1.02027e-08
5.49991e-08
-4.55721e-08
-3.85853e-08
2.91583e-08
3.87893e-08
3.03033e-09
-5.4815e-08
-3.65871e-09
2.5024e-09
-4.65034e-08
3.17986e-08
3.22129e-09
4.7498e-08
-2.27391e-08
-1.27572e-08
-1.20018e-08
-5.51944e-09
-1.08722e-08
1.63916e-08
-2.74878e-08
1.01839e-08
2.464e-08
-9.49702e-09
-4.34548e-08
3.64489e-08
1.65029e-08
1.93815e-08
1.0732e-08
-7.03039e-10
-8.73335e-08
4.9153e-08
1.1818e-08
8.38722e-08
2.43773e-08
-6.68183e-08
-2.65192e-08
5.81899e-08
-1.83255e-09
-2.48314e-08
2.10245e-09
3.56908e-08
-1.29619e-08
-2.4148e-08
5.17514e-08
-3.47682e-08
-1.63493e-09
3.31798e-08
3.22331e-09
-8.03261e-09
5.03004e-08
-2.18919e-09
-4.00786e-08
-3.39438e-09
-3.05072e-08
-9.29144e-09
-2.79146e-08
-4.95605e-08
3.97704e-08
4.85874e-08
-1.15941e-08
-1.1284e-08
-7.33483e-11
-2.88939e-08
-1.86131e-08
-7.93649e-08
5.36585e-09
4.52175e-08
2.87815e-08
-6.43614e-08
6.31573e-08
2.61327e-08
-2.49286e-08
1.8141e-10
2.98391e-09
-3.14432e-08
3.17043e-08
-5.78055e-09
2.65644e-08
1.25493e-08
-6.72158e-08
2.81022e-08
3.73641e-08
4.08403e-08
-4.51153e-08
-3.3089e-08
5.96329e-08
-4.99798e-08
-1.94292e-08
9.77613e-09
4.21401e-09
3.13793e-09
-5.39872e-08
4.66352e-08
-5.30741e-08
4.34047e-08
1.91032e-08
1.675e-08
-3.96227e-08
-8.57054e-09
3.27645e-08
2.67121e-08
-1.9632e-09
-1.71964e-08
2.43659e-08
5.70687e-09
-2.04277e-09
-2.74528e-08
5.09071e-08
1.9749e-08
3.69738e-08
4.92535e-09
-8.04962e-09
-5.16015e-08
-3.70926e-08
3.0653e-08
5.8041e-08
-1.12957e-08
6.73582e-09
-3.09224e-08
-4.9484e-10
-3.08538e-08
3.14112e-08
3.49378e-10
-1.29673e-08
-5.34691e-08
3.8853e-08
3.65671e-08
-8.62654e-09
-3.34335e-08
4.47405e-08
-4.38993e-08
-3.46238e-08
-1.27699e-08
-1.93142e-08
6.79813e-09
-2.60417e-08
1.57475e-09
4.38484e-08
3.04246e-08
-2.62233e-08
4.17412e-08
-4.59424e-08
7.23468e-08
-4.24323e-08
1.40808e-08
-3.97858e-08
3.08767e-08
-2.02386e-08
2.91477e-08
2.83229e-08
-3.58618e-08
3.42387e-09
-5.07943e-09
1.62371e-08
-1.45815e-08
-2.11074e-08
1.98319e-08
-4.7106e-08
4.83815e-08
4.58443e-08
-5.6251e-08
8.22469e-08
1.62122e-08
2.40609e-08
-2.27317e-08
-1.75414e-08
-1.22542e-08
-1.82164e-08
-2.37873e-08
-8.33495e-09
8.60714e-09
-4.31497e-08
4.28776e-08
-6.84458e-08
7.29132e-08
-3.32422e-08
-7.85646e-09
4.18152e-08
5.35353e-09
-3.93123e-08
4.9517e-08
1.66214e-08
4.70187e-08
1.08223e-08
-2.86617e-09
-5.49748e-08
1.6086e-08
-8.68053e-08
2.33637e-08
4.73557e-08
-4.21379e-08
4.45059e-08
1.21618e-08
-7.30794e-08
4.31159e-08
5.40365e-08
1.3492e-08
-2.77412e-09
3.11094e-08
-4.89255e-08
6.16239e-08
3.83091e-09
-1.65293e-08
-4.3061e-08
1.97157e-08
-2.50906e-10
2.35962e-08
5.01307e-08
4.12496e-08
-3.17473e-08
4.06824e-08
-3.23122e-08
3.36199e-08
-2.13808e-08
-5.2025e-08
-5.26862e-08
-1.10899e-08
-1.55888e-08
5.93578e-08
5.26117e-09
-2.72367e-08
-3.73823e-08
5.11438e-08
3.62713e-08
-1.58051e-08
2.55287e-08
2.81369e-08
-1.79912e-08
2.4865e-08
5.69155e-08
-2.67814e-08
-4.33578e-08
-1.41007e-08
3.28489e-08
2.46096e-08
3.00439e-08
-6.11455e-08
4.68159e-08
-1.57144e-08
3.45841e-08
-5.90175e-08
4.05194e-08
-7.00844e-08
-9.35989e-09
1.30878e-08
-5.97062e-08
-6.63112e-08
3.52405e-08
8.83487e-09
-4.24973e-08
5.59637e-10
1.68632e-08
-4.1036e-08
8.87109e-09
8.4075e-08
-4.90942e-08
-3.21192e-09
-3.17689e-08
7.51514e-08
-5.59497e-08
-8.90107e-09
-6.00689e-08
8.05623e-09
2.15632e-08
3.04494e-08
5.33559e-08
-3.44513e-08
-1.34644e-08
-5.44017e-09
-2.72168e-08
2.62938e-08
-1.20274e-09
2.12567e-09
-4.93976e-08
4.83305e-08
5.67629e-10
3.20013e-08
-1.87624e-08
-5.46301e-09
-7.77587e-09
2.27148e-08
2.29082e-08
-4.95232e-08
4.20912e-08
-4.95807e-08
-1.07213e-08
7.68857e-08
3.36715e-08
-7.5973e-08
-2.40365e-08
1.55225e-08
-4.74029e-08
5.59169e-08
2.32196e-08
4.1277e-08
-3.95473e-08
1.7896e-08
-1.92237e-08
1.16544e-08
-1.59882e-08
4.33379e-09
-2.95731e-08
-4.57901e-08
3.2724e-08
-1.28205e-08
1.8271e-09
3.75577e-08
3.05272e-08
-6.0613e-08
-3.42756e-08
-6.85434e-08
1.89285e-08
-2.25761e-08
4.49126e-08
-8.0817e-09
-2.33325e-09
5.28153e-10
4.46945e-08
-4.28894e-08
-3.19958e-08
2.11434e-08
1.73614e-08
1.83833e-08
7.03124e-09
2.10849e-09
1.38006e-09
-1.99586e-08
1.64701e-08
-4.37373e-08
-3.2405e-08
4.03673e-08
2.61682e-09
-5.00893e-08
-9.95575e-09
4.76387e-08
-1.47691e-08
4.4095e-08
-1.66573e-08
-4.28268e-08
1.69391e-08
4.57727e-08
4.21451e-08
4.91025e-08
-3.48667e-08
-6.36333e-08
7.19237e-08
-1.73837e-08
-2.05302e-08
-3.40097e-08
-6.5193e-08
-7.94274e-10
4.19507e-08
-3.60861e-08
5.06634e-08
4.32841e-09
4.41975e-09
2.68196e-09
-5.46838e-08
-8.66561e-09
1.81991e-08
1.74153e-08
1.18836e-08
-3.59523e-08
-1.86609e-08
-2.25642e-08
9.26258e-09
3.41712e-08
-2.08696e-08
2.33778e-08
3.0968e-08
-3.70025e-08
-1.73433e-08
-2.01545e-08
-5.65101e-09
1.63085e-08
3.95164e-08
-1.88075e-08
9.33498e-09
-2.68735e-09
5.63421e-10
-4.13309e-08
1.10306e-08
1.76637e-08
-3.55347e-08
3.21306e-09
-1.04007e-08
-2.1734e-09
4.37287e-09
8.20122e-09
4.12028e-08
-4.14001e-08
1.18517e-08
-2.00943e-08
-4.42857e-08
5.3746e-08
-9.95979e-10
2.26164e-08
-2.04755e-08
-1.14489e-09
4.59082e-08
1.30186e-08
2.00713e-08
1.41378e-08
1.01234e-08
4.02468e-08
1.10627e-08
3.69588e-08
-3.04688e-08
2.32557e-08
4.4473e-09
-3.49592e-08
-4.22501e-08
-5.19011e-08
-6.62232e-09
2.93449e-09
2.53326e-08
9.36014e-09
-3.76273e-08
-5.492e-08
-1.09272e-08
2.0275e-08
-1.34795e-08
2.72331e-08
-1.03298e-08
-2.4985e-08
3.76594e-08
1.32573e-08
3.2779e-08
-2.31864e-08
-2.28499e-08
-4.59986e-08
7.20596e-08
-1.66647e-08
-9.39623e-09
9.29971e-10
-1.32937e-08
5.45767e-08
4.9506e-09
1.85594e-09
4.08086e-08
-4.76151e-08
-2.8416e-08
6.6371e-08
-2.46976e-08
-1.54718e-08
2.00493e-08
-1.06243e-08
6.04682e-09
4.66154e-08
-2.51175e-08
1.44674e-08
-3.59653e-08
5.02209e-08
-1.37836e-08
-3.12604e-08
1.70083e-08
-5.04991e-08
3.64252e-08
2.38282e-08
2.4741e-08
-2.58545e-08
5.55054e-09
-5.73895e-08
2.21341e-08
2.97049e-08
-2.43649e-08
3.72437e-08
-2.82e-08
-4.34493e-08
-9.91208e-09
3.62649e-08
1.70965e-08
4.75158e-08
-5.22774e-08
-2.56458e-08
1.67777e-08
3.67944e-08
-4.70377e-08
-3.39606e-08
4.42039e-08
-8.40917e-09
-2.31148e-08
6.69262e-09
-3.32297e-08
2.72765e-08
4.67714e-08
-1.80993e-09
-4.59574e-08
7.74945e-08
-5.35103e-08
-1.80488e-08
-5.93547e-09
9.40584e-10
-7.26838e-09
-1.67161e-08
1.92192e-08
-2.68483e-08
-3.17828e-08
3.94119e-08
-9.46999e-10
-3.01348e-08
-1.62581e-08
3.33189e-09
-2.05448e-08
2.57473e-09
2.23047e-08
7.21303e-08
-3.99526e-08
-4.93855e-08
1.72077e-08
4.58397e-08
-3.77291e-08
-6.44022e-08
2.00325e-08
2.29889e-08
1.00662e-08
-6.45129e-09
-3.80662e-08
2.5409e-09
-1.51746e-08
-2.43347e-08
-5.27755e-10
1.21947e-08
1.26678e-08
-2.47537e-08
1.32726e-10
-3.43965e-08
7.76286e-09
-1.45478e-08
7.57387e-09
-3.52209e-08
3.91754e-08
2.55213e-08
-4.65329e-08
6.42533e-08
1.41178e-08
-3.18381e-08
-3.72806e-08
8.41158e-09
3.43165e-08
-5.44744e-09
2.61571e-08
2.67063e-08
-6.13803e-08
8.51683e-09
3.41756e-08
-6.63461e-08
-2.97761e-08
2.75788e-08
-1.23599e-08
2.39442e-08
6.53014e-08
5.4753e-08
-2.45732e-08
-3.49136e-08
4.73382e-09
5.17893e-08
-4.91347e-08
-4.37845e-08
-1.99034e-08
1.27812e-08
4.72218e-08
-7.72191e-10
5.15233e-10
-4.69648e-08
5.69489e-09
4.55544e-08
2.39021e-08
-4.91872e-08
-1.05821e-08
8.16788e-09
-3.09073e-08
2.06093e-08
-1.02631e-10
-3.79471e-09
-2.76248e-08
3.45104e-08
-3.09091e-09
-4.87323e-08
-2.39804e-08
2.46994e-08
4.80132e-08
-2.16799e-08
-3.60584e-08
3.27946e-08
2.49437e-08
-3.86659e-08
-2.16368e-08
5.25183e-08
-2.57162e-08
-1.27955e-08
3.53437e-08
3.16794e-09
6.19228e-09
-5.43315e-08
1.00772e-08
3.8062e-08
-3.87306e-08
-3.58371e-08
3.77132e-08
5.06354e-08
-4.15132e-08
-4.68354e-08
4.92053e-08
5.19597e-09
2.96737e-08
2.85926e-08
-1.86892e-08
-3.15833e-08
1.23488e-08
-6.47093e-09
-2.4368e-08
2.82383e-09
-5.94357e-09
-9.75848e-09
-4.19456e-08
-1.34889e-08
1.5392e-08
-1.96554e-08
-1.23447e-09
1.08093e-09
4.87581e-08
4.85088e-08
-2.53432e-08
2.61488e-09
2.63508e-08
2.73869e-09
3.70493e-08
4.14523e-08
-2.36633e-08
3.4341e-08
8.2278e-10
-2.9428e-08
-4.48801e-08
-2.60503e-08
5.35242e-08
1.74061e-08
5.91719e-08
3.09051e-08
-6.79614e-08
-2.21156e-08
3.06707e-09
5.54553e-09
-3.73257e-09
-4.88004e-09
-3.15035e-08
5.74344e-08
-9.71858e-09
-1.63808e-08
1.74368e-08
-8.30547e-10
1.73752e-08
-1.23307e-08
-3.54412e-08
3.37726e-08
-3.79273e-09
5.46135e-09
-4.99446e-11
1.01979e-09
-3.04426e-08
5.52324e-08
9.03695e-09
-3.38267e-08
2.70944e-08
2.42504e-08
2.10021e-08
1.30709e-08
1.04231e-08
-5.30671e-08
3.59022e-08
-2.05478e-08
9.37366e-10
-1.62917e-08
-4.16871e-08
6.56865e-08
1.93037e-08
-4.33031e-08
-2.59008e-09
-2.4896e-09
4.16468e-08
-5.86669e-08
-2.62204e-08
4.2455e-08
-2.42246e-08
1.19999e-08
1.16969e-08
3.40031e-08
1.8722e-08
-1.9237e-08
-3.34881e-08
-2.61457e-08
3.20733e-08
-6.52092e-09
-2.65644e-08
3.42464e-08
-3.03427e-08
2.26608e-08
3.25954e-08
-5.44434e-08
4.80052e-08
-5.41758e-08
-4.63765e-08
5.45122e-08
4.60401e-08
4.33209e-08
-9.11509e-09
-1.91668e-08
-1.5039e-08
8.31478e-09
4.2932e-08
2.62478e-08
-4.32332e-08
4.77102e-09
-1.64578e-08
-5.64528e-09
-4.47938e-08
3.72442e-08
1.31948e-08
4.23829e-10
-7.88964e-09
6.47118e-08
-1.81109e-08
3.80105e-09
-5.13142e-08
-2.9481e-08
2.48455e-08
5.0039e-08
3.62933e-08
1.5613e-08
5.03781e-09
-1.64906e-08
-4.16017e-09
-5.40533e-09
-2.24349e-08
2.15531e-08
1.21626e-08
7.48712e-09
2.63486e-08
-3.58289e-08
-1.19763e-08
2.14566e-08
-2.94687e-08
1.73729e-08
-1.25343e-08
2.46302e-08
1.23623e-08
6.70342e-09
-1.90658e-08
-2.02375e-08
-2.56526e-08
8.60951e-09
3.78777e-08
-3.8412e-08
6.95074e-08
-4.57036e-08
1.29906e-08
2.161e-08
-6.5111e-09
5.14096e-10
1.8305e-10
-3.55892e-08
2.33608e-08
-2.52366e-08
7.66439e-09
-5.78857e-09
-9.80499e-09
-1.34928e-08
-3.9168e-08
3.36378e-08
-5.11338e-09
1.06436e-08
3.63783e-08
9.8801e-09
-5.35105e-08
7.25213e-09
-1.79662e-08
1.81177e-08
3.62268e-08
-7.77022e-09
4.94758e-08
-4.8086e-08
6.38043e-09
-2.84786e-09
6.60366e-09
-2.92152e-08
2.54594e-08
-4.90024e-08
2.89634e-09
4.62717e-08
-1.65613e-10
6.35074e-08
-4.49134e-08
5.46688e-09
3.96482e-09
6.5676e-09
2.75266e-09
2.17545e-08
1.22273e-08
-1.0621e-08
-1.2251e-09
-3.22154e-08
-1.94505e-09
3.53856e-08
-5.80911e-09
-9.4871e-09
-1.61331e-08
4.3935e-10
2.63187e-09
9.29112e-09
4.11266e-08
5.71969e-09
-3.2258e-08
-1.45883e-08
-2.25123e-08
-3.99094e-08
3.48032e-09
5.89414e-08
-1.97422e-08
2.83646e-08
-2.62315e-08
4.57028e-09
4.53175e-08
-5.24404e-08
-6.47333e-10
1.62325e-11
-5.44708e-09
-3.37372e-08
-6.55577e-08
4.32672e-08
-7.61095e-09
2.99015e-08
-3.73739e-08
3.11653e-09
-5.16003e-09
-4.87025e-08
4.5537e-08
-9.65494e-09
-4.47502e-08
4.18531e-08
-9.50791e-09
4.37722e-08
-4.12892e-08
4.13701e-08
-2.25932e-08
-1.63471e-08
-4.96665e-08
5.36552e-09
-1.48367e-08
-2.67278e-09
3.25396e-08
-1.06054e-08
-6.75491e-09
3.02303e-08
3.43699e-08
-2.8698e-08
3.86119e-09
-2.94837e-08
2.27746e-08
-3.21853e-09
-1.07616e-08
-1.54886e-08
8.38749e-09
-3.43582e-08
-2.63066e-08
1.58639e-08
-1.5189e-08
-4.2362e-08
-1.72958e-08
-1.43972e-08
1.96332e-08
-3.4488e-08
4.52657e-08
-3.04108e-08
-4.20517e-08
-5.77511e-09
-5.43811e-09
-2.04324e-08
-1.31928e-08
1.11581e-08
-1.73139e-09
3.76605e-09
-8.65051e-09
4.65671e-08
-5.91535e-09
3.96226e-08
1.40177e-08
8.78937e-09
3.88589e-08
-1.80401e-09
4.33395e-08
5.26262e-08
-2.38354e-08
3.07385e-08
-1.01755e-08
2.18561e-08
-4.24191e-08
-3.29575e-08
4.36952e-08
2.95091e-08
-3.12262e-08
6.96772e-08
-9.7395e-09
-2.87114e-08
7.19233e-08
-1.18158e-08
-1.8454e-08
-4.62441e-08
2.34488e-08
2.53695e-08
-2.57428e-09
5.78768e-08
7.26836e-09
-3.1951e-08
-3.31942e-08
-4.09182e-08
-3.16445e-08
1.8387e-08
2.34265e-08
-4.19854e-08
1.56495e-08
3.73121e-08
2.87882e-08
4.37694e-09
-1.27861e-08
2.2056e-08
-2.79833e-08
-5.23968e-10
5.83739e-08
1.47114e-08
-4.62639e-08
-2.68214e-08
-1.11514e-08
1.9743e-08
-3.95887e-08
-3.8374e-08
1.78938e-08
-3.07958e-08
-3.22758e-08
3.51543e-08
-3.82441e-08
1.62062e-08
-1.31164e-08
2.19196e-08
-3.80165e-08
3.48271e-08
-2.2854e-08
-7.84776e-08
4.73493e-08
1.041e-08
2.07183e-08
-8.25405e-09
4.44265e-08
1.05346e-08
-4.67071e-08
-2.29835e-08
1.41688e-10
-4.59776e-08
3.40551e-08
-1.95811e-08
-3.31614e-08
-1.89347e-08
-1.79883e-08
-2.13645e-08
7.20713e-08
-3.10737e-08
2.86613e-09
-9.58864e-09
4.5491e-09
-4.67956e-08
5.15156e-08
5.31568e-08
-3.65134e-08
-1.34991e-09
-1.63452e-08
1.06884e-08
-4.73806e-08
1.40559e-08
2.26363e-08
1.63378e-08
-9.91979e-09
-1.96721e-08
1.3254e-08
-6.80982e-09
-5.45847e-08
1.53959e-08
5.6947e-08
4.24825e-08
1.73994e-08
-5.61423e-08
1.76354e-08
-4.52788e-08
-7.11484e-08
4.27188e-08
-7.20284e-08
-1.70631e-08
-2.29114e-10
8.06401e-09
-3.12479e-08
2.3413e-08
-1.54294e-08
1.96704e-08
-7.04014e-09
2.79913e-09
-6.94623e-09
-1.05278e-08
-3.18526e-08
-6.80902e-09
1.43873e-08
2.42743e-08
9.12683e-09
1.8238e-08
-4.45665e-09
2.4763e-08
-2.40232e-08
-4.53455e-09
3.35716e-08
-7.08212e-08
1.8039e-08
1.92106e-08
4.95051e-08
-2.82851e-08
-4.41898e-09
-3.18906e-08
-1.97093e-08
5.35591e-09
3.5901e-08
-2.29359e-08
2.55736e-09
-4.70683e-08
8.99141e-09
3.02204e-08
-1.19999e-08
-5.14565e-08
3.35997e-08
2.98567e-08
2.83725e-08
6.44601e-08
2.23522e-08
6.45169e-09
2.18365e-08
-3.6286e-08
-2.87837e-08
-5.25434e-08
4.80018e-08
3.17748e-08
3.71847e-08
1.43611e-08
-3.80843e-08
-6.16682e-09
4.05993e-08
-3.69394e-09
-3.42707e-08
2.61039e-08
1.4359e-08
-4.58609e-08
-4.02645e-09
2.58492e-09
4.76491e-08
-6.67303e-08
-3.73035e-08
2.91413e-08
4.12861e-08
-2.09223e-08
1.02617e-08
3.42914e-09
3.16266e-08
5.91918e-08
3.02745e-08
-2.8242e-08
6.64686e-09
-3.66314e-08
1.80027e-08
1.19818e-08
3.45558e-08
-2.94705e-08
-3.25737e-08
-3.27486e-08
3.57143e-08
1.96507e-08
-3.67245e-09
1.6885e-08
6.50319e-09
1.53315e-08
2.31088e-09
3.73774e-08
-5.50198e-08
-2.50216e-09
1.46954e-08
2.56617e-08
-5.05538e-08
-2.01982e-08
-1.9329e-08
1.09308e-08
4.46122e-09
6.02365e-08
5.79022e-08
-3.42665e-08
-2.82534e-08
4.27939e-08
2.65861e-08
4.22044e-08
1.5469e-08
-1.17196e-09
-5.65014e-08
4.92527e-08
-4.4513e-08
1.82787e-09
1.34682e-08
2.49479e-09
-5.96068e-09
-1.00023e-08
2.8587e-08
1.50873e-08
-1.18673e-08
-8.13207e-09
-4.73895e-08
8.86598e-09
-3.99541e-08
3.70422e-08
-3.23992e-08
5.2371e-09
-2.03574e-08
-3.28667e-08
2.14708e-08
2.9185e-08
3.71718e-08
-1.47585e-08
-7.70186e-09
-4.22456e-08
-6.80722e-10
3.45913e-08
3.92262e-08
-2.69797e-08
-4.34727e-08
-4.53136e-09
1.20599e-08
3.70015e-08
-4.25711e-08
-2.09346e-08
2.65042e-08
1.73165e-08
4.94472e-08
-4.04151e-08
2.13414e-08
-2.05127e-09
4.00677e-08
3.5335e-08
-1.66607e-08
3.09659e-08
6.50764e-08
-1.85826e-08
-4.68694e-08
3.75577e-10
1.64665e-08
6.659e-09
-1.47259e-08
1.36481e-08
-2.55292e-08
1.60345e-08
3.84945e-09
8.50427e-09
3.27564e-08
-5.35966e-09
-8.40066e-09
-2.75687e-08
6.45243e-08
-2.85549e-08
-4.63194e-08
5.28308e-08
2.88235e-08
9.30429e-09
-1.19959e-08
-1.57062e-08
1.83978e-08
-4.07305e-08
-2.66977e-09
5.20074e-08
-8.70777e-09
7.13055e-08
-1.14539e-08
5.30387e-08
2.87142e-08
-3.49815e-08
5.46304e-08
-8.65595e-09
7.19651e-09
-5.73006e-08
-8.23051e-12
-1.22752e-09
-5.17454e-08
1.20547e-08
7.58248e-09
-6.50629e-08
3.53532e-08
2.21273e-08
6.93041e-09
-3.7597e-08
1.24931e-08
1.81734e-08
-1.26922e-08
-1.09782e-09
1.92988e-08
-3.49834e-08
1.16491e-08
-8.25792e-09
-1.5818e-08
1.44839e-08
-7.21649e-09
4.72031e-08
1.82862e-09
6.30415e-09
7.29577e-09
-1.67184e-08
3.11844e-09
1.73386e-08
4.13041e-08
-4.29972e-09
-4.05359e-08
2.18226e-08
-7.96388e-09
-2.71524e-08
-5.74668e-09
3.88232e-08
-2.7723e-08
-6.45907e-08
5.6464e-08
2.27744e-08
-1.46477e-08
6.47594e-08
-5.61817e-08
-3.30371e-08
2.44594e-08
2.33524e-08
-4.42009e-08
1.06731e-08
2.82083e-09
-5.02898e-09
2.22575e-08
-2.61793e-08
-3.4338e-08
3.55327e-08
2.49846e-08
-5.0099e-09
2.0135e-08
-2.38025e-08
-1.40409e-08
-1.82441e-08
-1.82884e-08
1.93943e-08
2.44411e-08
2.18511e-08
-9.2928e-08
3.53677e-08
3.46108e-08
2.29495e-08
-1.51684e-08
2.52004e-08
-7.92964e-09
2.53888e-09
-1.33303e-08
4.44305e-08
-4.38421e-08
2.63959e-08
-2.69844e-08
2.78037e-08
1.97485e-08
-4.48409e-09
-4.30681e-08
3.34212e-09
3.07682e-08
-2.75066e-08
5.11086e-08
2.79535e-08
5.70986e-09
1.53112e-08
-9.43035e-09
1.66128e-08
-2.24936e-08
3.1591e-08
-3.74864e-08
-3.51572e-08
-2.09731e-08
1.61966e-09
2.38048e-08
-4.45138e-09
1.44826e-08
3.49091e-09
3.78094e-09
-8.11022e-09
5.76502e-08
6.22422e-09
-3.90963e-08
-6.15023e-08
2.92337e-08
1.81679e-08
-5.10712e-08
1.25835e-08
7.68091e-08
-6.77176e-08
4.3727e-09
-1.34642e-08
7.32182e-08
2.92626e-08
-5.60665e-08
-4.64142e-08
-4.26526e-08
-3.71073e-08
-1.81814e-08
1.65258e-08
-2.40605e-08
1.81256e-08
-2.03907e-08
1.20968e-08
3.50002e-08
-5.656e-08
-1.69081e-09
5.41291e-08
4.12167e-09
8.35063e-08
-5.865e-08
5.56822e-09
1.91192e-08
-2.88398e-08
1.22204e-08
-2.49975e-09
-6.16943e-08
4.27824e-08
9.45707e-10
-6.47694e-09
5.85109e-08
5.43581e-10
2.1873e-09
2.97327e-08
-3.24635e-08
-2.49331e-08
-9.16231e-09
-5.52727e-09
-2.87063e-08
-3.58591e-08
4.24988e-08
2.20666e-08
-5.96086e-08
2.03099e-08
5.80715e-08
-2.51724e-08
2.6384e-08
-5.92832e-08
-1.04352e-08
4.1931e-08
-4.04224e-08
8.92662e-09
6.98178e-08
2.18662e-08
-1.48749e-08
2.75551e-08
-4.2137e-08
3.6806e-08
-3.14046e-08
-5.80876e-08
5.9668e-09
1.74302e-08
-1.41871e-08
3.18906e-08
-2.61042e-08
1.59238e-08
-2.8764e-08
-1.37242e-08
-1.20273e-08
6.05638e-08
-1.18021e-08
-3.67344e-08
6.49565e-08
-3.32518e-08
3.33717e-08
-6.31479e-08
4.83603e-08
-3.91996e-08
-2.51604e-08
6.30018e-10
3.89569e-08
4.12363e-08
8.15946e-10
2.93606e-08
-6.7969e-08
9.57541e-09
-7.30289e-09
2.7479e-08
7.81748e-09
-4.72964e-08
-6.6997e-08
3.97605e-09
2.63733e-08
3.66476e-08
-4.23926e-09
-1.66698e-08
-4.60879e-08
3.99868e-08
1.5647e-08
-1.79109e-09
-5.38426e-08
4.40154e-08
1.24297e-08
-6.92702e-08
-6.98212e-09
1.12692e-08
6.49831e-08
1.55191e-09
-2.10506e-09
2.76475e-08
1.78725e-09
-1.76865e-08
4.84892e-10
1.54143e-08
-6.61603e-09
-1.06423e-08
2.92092e-09
-4.97186e-08
-2.39972e-10
-1.57112e-08
5.57766e-08
1.80061e-08
1.7035e-08
-4.42741e-08
-3.83186e-08
-2.28289e-09
-2.7461e-08
2.85188e-08
-2.35708e-08
-1.30581e-08
-2.53599e-08
-1.6123e-08
4.14096e-08
-1.11137e-08
-5.23043e-08
4.89594e-08
1.44586e-08
3.20641e-08
3.7856e-08
-6.67506e-08
5.41984e-08
-7.8575e-08
3.35172e-08
-9.14051e-09
1.45317e-08
-2.66129e-08
-1.11163e-09
-5.50061e-08
3.51358e-08
4.42758e-08
-4.41651e-08
-5.75002e-08
-4.16062e-08
2.71166e-08
4.05436e-09
-1.84172e-08
1.94967e-08
9.60898e-09
-9.58136e-09
-4.1526e-08
-2.9933e-08
8.10404e-08
1.47262e-08
5.16729e-08
-1.33604e-08
2.82244e-08
1.71998e-08
-4.3556e-08
-1.86827e-09
1.78736e-08
-2.27551e-08
-1.01699e-08
4.71564e-08
-6.64493e-08
1.5426e-08
3.86688e-09
-1.93775e-08
-2.29197e-08
-2.55291e-08
6.2763e-09
-4.72768e-08
-7.60563e-09
4.86061e-08
-8.16702e-09
3.6026e-08
6.38737e-09
1.42996e-08
-2.46544e-08
1.70016e-08
-3.31673e-08
-1.31329e-08
-2.29225e-09
-1.19619e-08
-3.12413e-08
1.66394e-08
-1.16016e-08
3.42382e-08
-2.85097e-08
5.73399e-09
-1.14626e-08
-1.73796e-08
5.55316e-08
-1.89328e-08
2.88463e-08
1.73293e-08
2.70426e-08
2.07599e-08
-2.19688e-08
-4.14104e-08
2.49246e-08
5.37212e-09
-8.05665e-08
6.78477e-08
-2.61516e-09
1.5334e-08
3.9151e-09
-4.10866e-09
-3.02497e-09
6.3133e-09
2.75545e-08
-5.81918e-08
1.90436e-08
-1.33953e-08
-2.6501e-08
-1.99246e-08
4.80004e-08
-3.25275e-08
1.71834e-08
2.37679e-09
4.36474e-08
-1.65571e-09
-3.05778e-09
-3.89339e-08
4.07195e-08
-2.4322e-08
-1.06778e-08
2.21628e-09
3.36319e-08
-6.94321e-09
-4.99503e-09
2.93568e-09
-5.22721e-08
-1.15775e-08
-1.0319e-08
-1.16848e-08
2.59643e-08
-2.78623e-08
3.11097e-08
4.30974e-08
-1.71719e-08
-3.59485e-08
1.00229e-08
-6.48811e-08
2.50892e-08
2.26909e-10
3.9565e-08
1.59925e-08
6.46955e-08
-8.18258e-08
3.45054e-08
5.58516e-08
2.26911e-08
-6.11549e-08
-1.73877e-08
-8.21332e-09
2.53989e-08
1.06589e-08
-1.36138e-08
5.21015e-08
3.71987e-08
-4.20783e-08
-4.57507e-08
-1.27039e-08
3.50909e-08
2.5697e-08
-2.04471e-08
-5.26305e-08
-2.2368e-08
4.83372e-08
-6.36609e-10
-7.99294e-08
-3.08441e-08
3.78553e-08
-2.71236e-09
-4.52801e-08
-1.16634e-08
5.96559e-08
3.01689e-08
-1.44724e-08
-9.12295e-09
-6.57352e-09
5.29705e-08
-2.91842e-08
-4.13981e-08
1.76118e-08
1.00477e-08
-2.11345e-08
3.56611e-08
-2.45742e-08
-3.07364e-08
3.65742e-08
3.1136e-08
-1.11335e-08
3.86445e-08
-3.55436e-08
-2.99664e-08
3.44789e-08
5.13391e-08
1.55399e-08
1.54417e-08
3.05517e-09
-3.05279e-09
3.36998e-08
-3.64568e-08
3.79422e-08
-3.51851e-08
2.35258e-08
-5.02381e-09
4.87576e-09
4.76421e-08
-1.4414e-08
-4.77005e-08
-3.97423e-08
3.21784e-08
-6.90167e-10
-6.78728e-08
4.63135e-08
3.49305e-08
2.1497e-08
5.52127e-08
-2.9691e-08
1.7849e-09
2.40174e-08
-4.93935e-08
-1.1746e-08
2.40469e-08
1.57677e-08
-1.84491e-08
-7.2602e-09
9.94154e-09
-6.20833e-08
2.34641e-08
-2.04564e-08
-3.38446e-08
4.63806e-08
-1.19843e-08
-5.51691e-10
3.21179e-09
1.87415e-08
-3.34315e-08
1.14783e-08
-1.22089e-08
-2.09323e-09
-1.12724e-09
-1.15588e-08
4.58479e-08
1.23102e-08
-1.53964e-10
2.25764e-08
1.72144e-08
3.21325e-08
-3.19986e-08
-1.35673e-09
-4.01857e-09
-6.52466e-09
3.28915e-08
-2.30247e-08
-3.53307e-08
-2.99077e-08
-9.55847e-09
-1.27449e-08
-1.00127e-09
1.14586e-09
-3.71094e-08
-3.6855e-08
1.25841e-08
7.57838e-08
2.61409e-08
1.70091e-08
1.67447e-08
4.84436e-10
-2.7657e-08
1.93752e-08
2.37913e-08
-1.38134e-08
2.8239e-08
3.41619e-08
-5.80103e-09
-3.59548e-08
4.79753e-08
-6.70147e-08
1.50468e-08
3.99256e-09
1.01943e-08
-1.43973e-08
4.64074e-08
-3.13844e-08
1.32468e-08
9.33878e-10
4.7537e-08
1.24423e-08
1.02643e-09
4.32737e-08
1.26386e-10
-3.79841e-10
-5.54835e-08
8.57257e-10
-2.0389e-08
1.21617e-08
-1.09198e-08
1.91471e-08