/*--------------------------------*- C++ -*----------------------------------*\
  =========                 |
  \\      /  F ield         | OpenFOAM: The Open Source CFD Toolbox
   \\    /   O peration     | Website:  https://openfoam.org
    \\  /    A nd           | Version:  7
     \\/     M anipulation  |
\*---------------------------------------------------------------------------*/
FoamFile
{
    version     2.0;
    format      ascii;
    class       volScalarField;
    location    "7.5";
    object      p;
}
// * * * * * * * * * * * * * * * * * * * * * * * * * * * * * * * * * * * * * //

dimensions      [0 2 -2 0 0 0 0];

internalField   nonuniform List<scalar> 
382612
(
0.00208215
0.00184399
0.00199923
0.00200199
0.00174437
0.00221167
0.00212445
0.0020158
0.00184429
0.00168816
0.00188089
0.00186871
0.00181608
0.00184369
0.00195366
0.00207611
0.00185468
0.00199454
0.0020239
0.00204409
0.00206331
0.00208819
0.00211302
0.0021238
0.00210485
0.0020813
0.00205825
0.00246808
0.00251253
0.00255005
0.00258121
0.00237183
0.00236532
0.00235646
0.00234056
0.00225437
0.00196265
0.00204757
0.00210896
0.00213995
0.00216534
0.00218783
0.00210413
0.00208822
0.00206715
0.00204047
0.00195708
0.00197137
0.00199166
0.00200836
0.00216666
0.00215068
0.00213149
0.00211076
0.0020839
0.0019277
0.00197805
0.00205895
0.00212149
0.00201239
0.00208539
0.00196357
0.00198116
0.00261595
0.00202556
0.00187013
0.00213594
0.00233909
0.00244026
0.00257176
0.00258924
0.00259161
0.00259278
0.00273296
0.0027234
0.00271072
0.00268615
0.00258099
0.00237879
0.00248136
0.00252141
0.00254839
0.00256739
0.00289983
0.00290698
0.00291518
0.00289932
0.00274602
0.00212692
0.00225314
0.00228418
0.00229924
0.00230922
0.00248454
0.00249872
0.00251609
0.00251717
0.00244723
0.00201821
0.00208587
0.00210797
0.00212139
0.00213578
0.00215215
0.00202797
0.0020207
0.00201228
0.00200902
0.00181954
0.00184849
0.00186974
0.00188511
0.00213502
0.00211637
0.00209548
0.0020746
0.00204633
0.00170885
0.00182457
0.00185671
0.00187164
0.00188059
0.00204328
0.00202491
0.00200485
0.00198195
0.00191452
0.00166146
0.00184391
0.00197453
0.00199745
0.00200634
0.00200933
0.00221777
0.00222646
0.00223856
0.0022511
0.00236385
0.00234265
0.00221306
0.00218197
0.00216292
0.00214929
0.00189704
0.00188712
0.00187544
0.00186915
0.00198829
0.00200162
0.00201293
0.00202023
0.00201429
0.00201061
0.00200365
0.00199854
0.00204046
0.00195957
0.00189053
0.00189045
0.00189714
0.00190172
0.0018334
0.00198702
0.00202378
0.00171104
0.00187133
0.00181634
0.00210145
0.00231033
0.00177721
0.00179956
0.00213422
0.0017431
0.0018177
0.00179681
0.0017296
0.00172646
0.00173524
0.00174079
0.00224643
0.00225709
0.00227471
0.00229755
0.00229625
0.00196269
0.00192383
0.00191386
0.00191337
0.00191478
0.00223678
0.00225167
0.00227566
0.00230538
0.00233368
0.00200512
0.00211562
0.00212375
0.00212254
0.00211774
0.00211461
0.00193248
0.00193261
0.00193495
0.00194685
0.00164577
0.00164881
0.0016559
0.00165878
0.00198322
0.00198372
0.00198372
0.00198625
0.00202299
0.00167089
0.001661
0.00202598
0.0019244
0.00160839
0.00183999
0.00198175
0.00169309
0.00197232
0.0019397
0.00166173
0.00158313
0.00189725
0.00190907
0.00175557
0.00157618
0.00180926
0.00195005
0.00200688
0.00198446
0.00197266
0.00183827
0.00167453
0.00200887
0.00193221
0.00199471
0.00202909
0.00194909
0.00199499
0.00211745
0.00209536
0.00189799
0.00194029
0.00197749
0.00198824
0.00200162
0.00201578
0.00216759
0.00216518
0.00215669
0.00211641
0.00238238
0.00235814
0.00233965
0.00232261
0.00274368
0.00273349
0.00272393
0.00270025
0.00256558
0.00248381
0.00241992
0.00242554
0.00243737
0.00244081
0.00244675
0.00210959
0.00211164
0.00210685
0.00209312
0.00210124
0.00256481
0.00252813
0.00253108
0.00254052
0.00254881
0.00237656
0.00236291
0.00234099
0.00232382
0.00234763
0.0025644
0.00251865
0.00251805
0.00253188
0.00254331
0.00274546
0.00274587
0.00274565
0.00273635
0.00266487
0.00257977
0.00270464
0.00273441
0.00274722
0.00275467
0.00317488
0.00318105
0.00318901
0.00317083
0.0029974
0.00222478
0.00225113
0.00226664
0.00228893
0.00230716
0.00238004
0.00237222
0.00236166
0.00234045
0.0022411
0.00205768
0.00213633
0.00216921
0.00219318
0.00220917
0.00254703
0.00256153
0.00258512
0.00259582
0.00251099
0.00185358
0.00185213
0.00185809
0.00187495
0.00189094
0.00196873
0.00196913
0.0019813
0.00199567
0.00200541
0.00194399
0.00192908
0.0019104
0.00189972
0.00188818
0.00244009
0.00244441
0.00242355
0.00239741
0.00237891
0.00187209
0.00186293
0.00185208
0.00185372
0.0018933
0.0023793
0.00232952
0.00229821
0.00227316
0.00225731
0.00174488
0.00174052
0.00173598
0.00175016
0.00184807
0.00204643
0.00198336
0.00197459
0.00197906
0.00198418
0.00222083
0.00223364
0.0022532
0.00227985
0.00232957
0.00194951
0.00185792
0.00184595
0.00185263
0.00185898
0.00218766
0.0021985
0.0022142
0.00223174
0.0022406
0.00200894
0.00204379
0.00204601
0.00204692
0.00204385
0.00204093
0.00196369
0.00196294
0.00196264
0.0019681
0.00180713
0.00180457
0.00180621
0.00180711
0.0019821
0.00198545
0.00198842
0.00199062
0.00199897
0.00182642
0.00208117
0.00202657
0.00201397
0.0020102
0.00200752
0.00195753
0.00212618
0.00220403
0.00215447
0.00213894
0.00213068
0.00212505
0.00198787
0.00198759
0.00198683
0.00198621
0.00203795
0.00203557
0.00203175
0.00202883
0.00205345
0.00205482
0.002057
0.00205854
0.0020395
0.00204112
0.00204509
0.00204792
0.00221941
0.00222383
0.00222849
0.00223232
0.00225368
0.0020555
0.00206149
0.00208974
0.00215534
0.00200394
0.00205609
0.00201724
0.00190044
0.00178354
0.00197681
0.00197967
0.00181555
0.00215105
0.00210867
0.00208025
0.00212009
0.00199525
0.00204069
0.00210585
0.00218688
0.00218304
0.0022841
0.00227469
0.00223927
0.00223316
0.00223433
0.00223631
0.00231834
0.00231546
0.00231141
0.00230701
0.00230682
0.00236145
0.00236788
0.00236955
0.00237167
0.00237453
0.00230374
0.0023043
0.00230443
0.00230181
0.00229941
0.00212892
0.00207328
0.00208069
0.00208258
0.00208188
0.00208148
0.00214153
0.00213497
0.00212662
0.00212155
0.00207296
0.00207698
0.00208187
0.00208552
0.00205515
0.0020563
0.00205791
0.0020577
0.00205439
0.00207288
0.00226564
0.00225106
0.00225134
0.00225027
0.00224812
0.00226425
0.00234483
0.00229423
0.00227973
0.00228464
0.00229274
0.00229868
0.00250815
0.00250749
0.00250491
0.00249334
0.00245508
0.00248409
0.00250805
0.00251747
0.00252354
0.00252791
0.00243837
0.00243266
0.00242527
0.00241757
0.00241405
0.0023409
0.00236924
0.00238229
0.002388
0.0023916
0.00219756
0.00218705
0.00217451
0.00216806
0.00212257
0.00212654
0.00212711
0.00212788
0.00216601
0.00216428
0.00216236
0.00215824
0.00221593
0.00221784
0.00222371
0.00222882
0.00245802
0.00244705
0.00243279
0.0024147
0.00238238
0.00221885
0.00214073
0.00212764
0.00224308
0.00217249
0.00211721
0.00208366
0.00214556
0.00200659
0.00203379
0.00208573
0.00213092
0.00218303
0.00209458
0.00210666
0.00221449
0.00217198
0.00210656
0.00229023
0.00236049
0.00245194
0.00248756
0.00243793
0.0024433
0.00245131
0.0024603
0.00246674
0.00258976
0.00258293
0.00257274
0.00255744
0.00252742
0.00255503
0.00258576
0.002598
0.0026051
0.00260956
0.00251811
0.00251417
0.00250782
0.00249697
0.00248365
0.00247872
0.00249045
0.00249733
0.00250082
0.00250286
0.00243608
0.00242568
0.00241195
0.00239612
0.00236334
0.00222786
0.00225
0.00224968
0.00224707
0.00224504
0.00232044
0.00231136
0.00230054
0.00228542
0.00223791
0.00215837
0.00210588
0.00211586
0.00212037
0.0021207
0.00212029
0.00214425
0.00214041
0.00213608
0.00213836
0.00218593
0.00219091
0.00219765
0.00220288
0.00213593
0.00213488
0.00213414
0.00213288
0.00212394
0.00218108
0.0021644
0.00210341
0.00210439
0.00215121
0.00210951
0.00207797
0.00208915
0.00212907
0.00222763
0.00213229
0.00206009
0.00207956
0.00215627
0.00207901
0.0023132
0.00264009
0.00221729
0.00210911
0.00234531
0.00248733
0.00256967
0.00258341
0.00256088
0.00253966
0.00245435
0.0024881
0.00250307
0.00251016
0.0025142
0.00259077
0.00258575
0.00257955
0.00257043
0.00254158
0.00256072
0.00259295
0.00260282
0.00260907
0.00261387
0.00256557
0.00255737
0.00254649
0.00253503
0.00252113
0.00255864
0.00259076
0.00260267
0.0026098
0.00261474
0.00257223
0.00256926
0.00256294
0.00254854
0.00250979
0.00239182
0.00238797
0.00239304
0.00240071
0.00240697
0.00246287
0.00246075
0.00245794
0.00245114
0.00242643
0.00230881
0.00230828
0.00231362
0.00231926
0.002323
0.00219629
0.00219223
0.00218721
0.00218279
0.00217747
0.00211413
0.00208997
0.0020982
0.00210136
0.00210121
0.00209944
0.00212239
0.00211882
0.00211399
0.00211078
0.00210001
0.00210158
0.00210483
0.00210843
0.00207269
0.00207289
0.00207106
0.00206619
0.0020636
0.00210626
0.00219625
0.00219027
0.00219442
0.00219983
0.00220434
0.00215071
0.0021465
0.00214111
0.00213715
0.00213996
0.00206243
0.00204722
0.00205848
0.00206213
0.00206372
0.00206566
0.00208652
0.00208106
0.00207445
0.00206908
0.00208928
0.00209
0.00209132
0.00209252
0.00208533
0.00208313
0.00208285
0.00208221
0.00207438
0.00208762
0.00208275
0.0020537
0.00207393
0.00207398
0.00201454
0.00201959
0.00210253
0.00213329
0.00215863
0.00209339
0.00206859
0.00204641
0.00208871
0.00207216
0.00198022
0.00188484
0.00212196
0.0020793
0.00214467
0.00219755
0.00232485
0.00217942
0.00218309
0.00234089
0.00209076
0.00205963
0.00213299
0.00226926
0.00219098
0.00211075
0.00210055
0.00222934
0.00227397
0.00213465
0.00208805
0.00208982
0.00233293
0.00232352
0.00237759
0.00238274
0.00239184
0.00237904
0.00237642
0.00237699
0.00237823
0.00237554
0.0023741
0.00237339
0.00237519
0.00237402
0.00246148
0.00247992
0.00248451
0.00248817
0.00249131
0.00241089
0.00240877
0.00240423
0.00239331
0.00236922
0.00231014
0.00230527
0.00230489
0.00230752
0.00231077
0.00241878
0.00241398
0.00240847
0.0024012
0.00237837
0.00240501
0.00243101
0.00244045
0.00244784
0.00245391
0.00254347
0.00253876
0.00253139
0.00251513
0.00247381
0.00239604
0.00241642
0.00242986
0.00243811
0.00244309
0.00252676
0.0025212
0.00251478
0.00250814
0.00248928
0.00248213
0.00249324
0.00249846
0.0025027
0.0025059
0.00242053
0.00241814
0.00241615
0.0024143
0.0024013
0.00235037
0.00234184
0.00233964
0.00234113
0.00234289
0.00225186
0.00224672
0.00224048
0.00223807
0.00225111
0.00226916
0.00228572
0.00228903
0.00228896
0.00228915
0.00217424
0.00217637
0.00217807
0.002178
0.00216993
0.00216933
0.00218473
0.00218479
0.00218131
0.00217793
0.00204929
0.00204511
0.00204052
0.00203977
0.00206839
0.00207361
0.00207658
0.00207924
0.00206844
0.00206456
0.00205973
0.00205254
0.00204436
0.00204705
0.00204498
0.0020497
0.00205487
0.00205868
0.0020797
0.00208038
0.00208063
0.00208088
0.00208085
0.0020625
0.00205956
0.00205896
0.002059
0.00205884
0.00201961
0.00201576
0.00201056
0.00200674
0.00202295
0.00202761
0.00203146
0.00203534
0.00210453
0.00210079
0.00209892
0.0020967
0.00207057
0.00206796
0.00206992
0.00207264
0.00209988
0.00210412
0.00211003
0.00211638
0.00212173
0.00208255
0.00209091
0.00207209
0.00204929
0.00189442
0.00197262
0.00209512
0.00204876
0.00200642
0.00204429
0.00208435
0.00209119
0.00181626
0.00196614
0.00195631
0.00178001
0.00186995
0.00194785
0.00200776
0.00197034
0.00208619
0.00205766
0.00210722
0.00219856
0.00230666
0.00214283
0.00210438
0.00217228
0.00218617
0.0021299
0.00201951
0.00201174
0.00196725
0.00224357
0.00248891
0.00265905
0.00273031
0.00268875
0.00254369
0.00233639
0.00210373
0.00189057
0.00175371
0.00180184
0.00181468
0.0018138
0.00181077
0.00193837
0.00193125
0.00192351
0.00191889
0.00191366
0.00212656
0.00219323
0.00220985
0.00221108
0.00220971
0.00229373
0.00228511
0.00227516
0.00226782
0.00225043
0.00219365
0.00224452
0.00225699
0.00226239
0.00226614
0.00224124
0.00223979
0.00223497
0.00222121
0.00217256
0.00235419
0.00236519
0.00236991
0.00237815
0.00238575
0.0023231
0.0023224
0.00231849
0.00230394
0.00225513
0.00217871
0.00218872
0.00219463
0.00219848
0.00220018
0.00233538
0.00233128
0.00232798
0.00232895
0.00233283
0.00230391
0.00229876
0.00230422
0.00231071
0.00231544
0.00230969
0.00230812
0.00230429
0.00229661
0.0022888
0.00223961
0.00225738
0.00226402
0.00226559
0.00226553
0.0021696
0.00216706
0.00216398
0.00216331
0.00216886
0.00223263
0.00222207
0.00221608
0.00221284
0.00221141
0.00212284
0.00211804
0.0021131
0.00211489
0.00214279
0.00211258
0.00210031
0.00210234
0.00210647
0.00210928
0.00213099
0.00213569
0.00214333
0.00215248
0.00215496
0.00203655
0.00202352
0.00202548
0.00202827
0.00202987
0.00199355
0.00199133
0.00198792
0.0019864
0.00200096
0.00201034
0.0020054
0.00200581
0.00200624
0.00200548
0.0020414
0.00203764
0.00203242
0.00202824
0.00202939
0.0019769
0.00200296
0.00201171
0.00202172
0.00203148
0.0020398
0.00201626
0.00200898
0.00199821
0.00198622
0.00200769
0.00200862
0.00201098
0.00201278
0.00204663
0.00204459
0.00204253
0.00203838
0.00202984
0.00201745
0.00206175
0.00208365
0.00207512
0.00202121
0.00192685
0.00202863
0.00198134
0.00185219
0.00200266
0.00203107
0.00188062
0.00167948
0.00177083
0.00195176
0.00186009
0.00165254
0.00181763
0.00188326
0.00192972
0.00191625
0.00194754
0.00197004
0.0020035
0.00195504
0.00163352
0.0018435
0.00185172
0.00164171
0.00162013
0.0016774
0.00175107
0.00192652
0.00210378
0.00223382
0.00228471
0.0022324
0.00208254
0.00186104
0.00161567
0.00138806
0.00128111
0.00133376
0.00134145
0.00133682
0.00133139
0.00144899
0.0014425
0.00143614
0.00143285
0.00142457
0.00171542
0.00176888
0.00177987
0.00177733
0.00177249
0.00190001
0.00189192
0.00188302
0.00187885
0.0018762
0.00205843
0.00206857
0.00207391
0.00207967
0.00208403
0.00198327
0.00197784
0.00197309
0.00197517
0.00197736
0.00213582
0.0021173
0.00211377
0.00211765
0.00212213
0.00204416
0.00204177
0.00204224
0.00205085
0.00205748
0.0021563
0.00212506
0.002113
0.0021118
0.00211312
0.00211921
0.00211757
0.00211492
0.00211394
0.00212662
0.00226042
0.00225995
0.00225421
0.00225214
0.00225275
0.00220159
0.00220088
0.00220142
0.0022093
0.00224092
0.00216393
0.00216343
0.00215571
0.00215223
0.00215118
0.00213624
0.00213798
0.00214217
0.00215208
0.00216773
0.00209471
0.00208238
0.00208102
0.00208285
0.00208452
0.00214271
0.0021425
0.00214172
0.00213941
0.00213218
0.00216727
0.00213091
0.00218472
0.00218094
0.00211091
0.00210894
0.00211237
0.00211481
0.0021154
0.00204613
0.00204438
0.00204301
0.00204702
0.00207063
0.00202103
0.00201676
0.0020196
0.00202026
0.00201988
0.00200766
0.0020063
0.00200395
0.00200155
0.00201007
0.00200454
0.00200871
0.00200986
0.00200961
0.00200921
0.00196421
0.00196478
0.00196577
0.00197009
0.001991
0.00214911
0.00214322
0.00212855
0.0021177
0.0021117
0.00208338
0.00208666
0.00209346
0.00210988
0.00216123
0.0020663
0.00208056
0.00207261
0.0020699
0.00206854
0.0020695
0.00201691
0.00201855
0.00202223
0.00203418
0.00195499
0.00196559
0.00197111
0.00197446
0.00209937
0.00209622
0.00209244
0.00208288
0.00205614
0.00193162
0.00199307
0.00212349
0.00202354
0.00192796
0.00191656
0.00209598
0.00194163
0.00193282
0.0019638
0.00197443
0.00197618
0.00197536
0.00188623
0.00188575
0.0018841
0.00188304
0.00189136
0.00194788
0.00198163
0.00198493
0.00198311
0.00198072
0.00202026
0.00202752
0.0020339
0.00202912
0.00197323
0.00196366
0.00200945
0.00203193
0.00203862
0.00204337
0.00204945
0.00201134
0.00201388
0.00201463
0.00200714
0.00194271
0.00195031
0.00195979
0.00196619
0.00206634
0.00205988
0.00205192
0.00204029
0.00202366
0.00195879
0.00205544
0.00206202
0.00203304
0.00195819
0.00177077
0.00194331
0.00190453
0.0016671
0.0016281
0.0018503
0.00178618
0.00155421
0.00180295
0.00187622
0.00194211
0.00198307
0.00183588
0.00185259
0.00190162
0.00187592
0.00184259
0.00193202
0.00199183
0.00192493
0.00205595
0.00204812
0.00198921
0.00193772
0.00188712
0.0020033
0.00193523
0.00177181
0.00203823
0.00205682
0.00205387
0.00208089
0.00203355
0.00203245
0.00200762
0.00204077
0.00169046
0.00185318
0.00190224
0.00168127
0.00176366
0.00191741
0.00196283
0.00198742
0.00187215
0.00194784
0.00189262
0.00177096
0.00174594
0.00188631
0.00192271
0.00170565
0.00178096
0.00194912
0.00195772
0.0017598
0.0018546
0.00198472
0.00199866
0.00189253
0.00178171
0.00198473
0.0019464
0.00170391
0.0019458
0.00193651
0.00190743
0.001863
0.00178442
0.00177461
0.00177768
0.00177935
0.0020051
0.00200554
0.00200634
0.00201413
0.00206306
0.00228412
0.00222966
0.00220994
0.00219987
0.0021948
0.00199418
0.00198921
0.00198423
0.00199308
0.00206837
0.00224448
0.00221781
0.0022039
0.00219725
0.0021943
0.00215019
0.00214681
0.0021436
0.00214855
0.00219776
0.00212624
0.00210655
0.00199093
0.00194841
0.00189765
0.00189012
0.00189162
0.00189242
0.00208385
0.00208568
0.00208655
0.0020862
0.00210449
0.00227942
0.00224497
0.00223127
0.00222729
0.00222643
0.00214376
0.00213965
0.00213486
0.00213756
0.0021793
0.00231902
0.00231378
0.00230739
0.00230444
0.00230317
0.00222295
0.0022228
0.00222259
0.00222589
0.00225547
0.00224985
0.00222991
0.00214793
0.00209779
0.00202053
0.00198626
0.00198374
0.00198552
0.00198677
0.00216706
0.00216766
0.00217105
0.0021825
0.00219786
0.00226737
0.00226046
0.00225386
0.00225284
0.00225392
0.00228199
0.00228009
0.0022769
0.00227261
0.00227413
0.00230494
0.00231318
0.00231759
0.00231784
0.00231717
0.00233467
0.0024417
0.00240586
0.00229012
0.00212778
0.00202203
0.00204442
0.00205266
0.00205216
0.00204971
0.00218996
0.00218542
0.0021831
0.00218776
0.0021947
0.00223437
0.00224902
0.00225401
0.00226077
0.00226745
0.00215016
0.00215341
0.00215375
0.00214025
0.00209167
0.00189838
0.00187758
0.00187591
0.00188202
0.00188801
0.00174289
0.00174722
0.00175014
0.00174177
0.00171626
0.00148289
0.00147104
0.00146441
0.00146455
0.0014665
0.00147302
0.0014695
0.00146616
0.00146728
0.00147471
0.0012215
0.0012161
0.00121796
0.00122409
0.00122999
0.00119448
0.00119407
0.00119526
0.00119791
0.00119549
0.00102781
0.00101551
0.00101686
0.00101922
0.00102141
0.000938284
0.000932795
0.000929573
0.000933457
0.000958643
0.0011935
0.00121031
0.00121315
0.00120758
0.00120069
0.00133804
0.00133251
0.00132752
0.00133027
0.00135113
0.00157285
0.00155848
0.00155789
0.00156231
0.00156732
0.0017586
0.00176363
0.00176791
0.00176329
0.00173426
0.00184375
0.00187036
0.00187716
0.00187746
0.00187722
0.00178311
0.00178579
0.00178698
0.00178347
0.00178954
0.0018632
0.00184243
0.00184393
0.00184827
0.00185206
0.00196254
0.00196302
0.00196295
0.00195951
0.00195071
0.00193304
0.00191328
0.00191064
0.00191059
0.00190982
0.00212137
0.00212298
0.002129
0.00213886
0.00214784
0.00190302
0.00187936
0.00187912
0.00188247
0.00188449
0.00194086
0.00194159
0.00194244
0.00194173
0.00193788
0.00193604
0.0019104
0.00190539
0.00190448
0.00190418
0.00204929
0.00205429
0.00206421
0.0020811
0.00209423
0.00210806
0.00207492
0.0020619
0.00205636
0.00205381
0.00186149
0.00185893
0.00185498
0.00185189
0.00186386
0.00188484
0.00187166
0.00187279
0.00187476
0.00187571
0.00211304
0.0021228
0.00213985
0.00216383
0.00216819
0.00222661
0.00224211
0.00222295
0.00220639
0.00219653
0.00220878
0.00221142
0.00221823
0.00223097
0.00223075
0.00231235
0.00229875
0.002298
0.00229733
0.00229889
0.0020782
0.00207389
0.00206785
0.00206369
0.00206544
0.00193206
0.00194406
0.00198523
0.00200227
0.00201769
0.00203041
0.00206607
0.00206331
0.00205791
0.00203527
0.00215456
0.00215409
0.00215439
0.00215579
0.00213627
0.00212814
0.00212236
0.00212048
0.00213603
0.00214514
0.00205887
0.00210613
0.00198682
0.00188681
0.00213651
0.0020743
0.00201663
0.00194553
0.00179667
0.00191696
0.00190129
0.0018072
0.00185347
0.00184414
0.00193502
0.00196406
0.00190994
0.00195234
0.00197707
0.00191704
0.00183058
0.0019458
0.00191367
0.00177176
0.00180775
0.00190038
0.00185639
0.00180153
0.00191018
0.00163601
0.00145456
0.00129877
0.0012183
0.0011992
0.00119816
0.00117743
0.00112754
0.0010634
0.000987152
0.00090207
0.000807535
0.000710613
0.000611258
0.000695479
0.00068475
0.000684033
0.000686268
0.000688164
0.000826605
0.000837757
0.000849846
0.000856642
0.000850568
0.00090761
0.000909777
0.000907363
0.000902105
0.000897114
0.000850868
0.000860857
0.000871005
0.000876636
0.000885631
0.00112002
0.00107457
0.0010635
0.00106478
0.00106887
0.00121857
0.00122704
0.00123455
0.00123401
0.00123468
0.00151344
0.00149094
0.00147936
0.00147866
0.00147992
0.00167974
0.00167791
0.0016799
0.0016936
0.00173204
0.00157039
0.0015765
0.00157683
0.00157538
0.00157329
0.00152999
0.00153417
0.00153676
0.0015384
0.0015604
0.00188313
0.00186167
0.00184413
0.00183788
0.0018366
0.00190771
0.00190835
0.00191267
0.00192973
0.00198628
0.00169718
0.00170407
0.00170515
0.00170466
0.00170385
0.0017259
0.00172796
0.00173069
0.00173565
0.00175686
0.00198952
0.00198664
0.00196988
0.00195932
0.00195431
0.0019344
0.00193706
0.00194368
0.0019606
0.00200783
0.00173249
0.00172521
0.00172648
0.0017287
0.00172933
0.00179746
0.00179817
0.00179889
0.00179834
0.00179718
0.00187118
0.0018484
0.00184195
0.00183886
0.00183689
0.00205965
0.00206992
0.00208665
0.00210656
0.0021011
0.00177921
0.00178402
0.00179074
0.00179405
0.00179549
0.00183658
0.00183344
0.00182598
0.00181097
0.00179305
0.00181003
0.00182842
0.00184658
0.00185858
0.00186502
0.00195754
0.00195047
0.0019383
0.00191683
0.00188227
0.00178936
0.00183532
0.00185882
0.00187056
0.00187649
0.00213517
0.00212983
0.00212121
0.0020991
0.00202531
0.00219436
0.0022294
0.00222881
0.00222593
0.00222531
0.00210554
0.00210924
0.00211226
0.00210593
0.0020324
0.00204004
0.00205209
0.00206363
0.00212385
0.00210828
0.00209106
0.00207588
0.00208369
0.00209881
0.00210254
0.00210335
0.00233779
0.00233425
0.00233042
0.00231429
0.00221031
0.00200219
0.00206633
0.00206151
0.00191252
0.00188664
0.00206742
0.00205856
0.00187987
0.00194915
0.00211138
0.00214306
0.00215669
0.00216324
0.00216993
0.00204469
0.0020334
0.0020149
0.00199394
0.00228172
0.00230516
0.00230545
0.00230562
0.0021885
0.00218315
0.00217466
0.00215895
0.00213696
0.00229499
0.0022899
0.00229036
0.00228357
0.00227964
0.00229687
0.00229238
0.00228692
0.00227552
0.00233436
0.00204015
0.00205837
0.00206142
0.00206613
0.00207374
0.00208105
0.00216713
0.00216866
0.00216875
0.00215302
0.00206388
0.0020902
0.00210031
0.0021077
0.00205192
0.00204358
0.0020343
0.00202411
0.00199363
0.00189956
0.00183537
0.00205583
0.00199626
0.0020083
0.0020074
0.00193082
0.00191638
0.00190948
0.00207516
0.00199385
0.00190022
0.0019181
0.00197347
0.0018945
0.00196256
0.0019428
0.00191527
0.00164451
0.00128218
0.000914122
0.000650124
0.000551065
0.000609083
0.000740128
0.000841945
0.000850774
0.000768057
0.000639334
0.000557567
0.000487767
0.000453835
0.000395597
0.000419805
0.000405426
0.000397902
0.000390909
0.000385186
0.000454566
0.00045559
0.000459287
0.000470246
0.000504839
0.000550428
0.000538141
0.000531611
0.000522761
0.000513834
0.00066167
0.000664137
0.000670332
0.000686439
0.000715144
0.000919349
0.000874764
0.00085404
0.000845325
0.000841161
0.000956973
0.000964631
0.000970879
0.000973095
0.00098596
0.0013221
0.00128531
0.00126546
0.0012596
0.00125962
0.00146024
0.00146276
0.00146951
0.00149119
0.00156192
0.00130667
0.00131317
0.00131303
0.0013119
0.00131126
0.0013411
0.00134551
0.00134889
0.00135239
0.00137599
0.00174512
0.00172645
0.00170465
0.00169156
0.00168588
0.00174835
0.00175099
0.00175787
0.00177713
0.00183714
0.00147708
0.00148698
0.00148888
0.00148914
0.00148837
0.00158722
0.00159009
0.00159374
0.00159935
0.00161752
0.00187307
0.00187217
0.00185269
0.00183764
0.00182985
0.00184993
0.00185726
0.00187159
0.00189421
0.0019065
0.00198953
0.00195943
0.0019395
0.00192802
0.00192233
0.00162752
0.00162588
0.00161967
0.001607
0.00159877
0.00167589
0.00168373
0.00169395
0.00170044
0.00170297
0.00182463
0.00182181
0.00181803
0.00181365
0.00179954
0.00190896
0.00193613
0.00194132
0.00194257
0.0019431
0.00206297
0.00206236
0.00206078
0.00205422
0.00202144
0.00199895
0.00202696
0.00203311
0.00203504
0.00203519
0.00207056
0.00206219
0.00204793
0.00202344
0.00197874
0.00205404
0.00205912
0.0020692
0.00207747
0.00208249
0.0022255
0.00223063
0.00223816
0.00223878
0.00218382
0.00209084
0.00218012
0.00218968
0.00218779
0.00218586
0.00209864
0.00209452
0.00208855
0.00207943
0.00202996
0.00214134
0.00214498
0.00214169
0.0021401
0.00214275
0.00212257
0.00198117
0.00200754
0.00197035
0.00206157
0.00219889
0.00183244
0.00200303
0.00221478
0.00186099
0.00219974
0.00292729
0.00205193
0.00218495
0.00226692
0.00255504
0.00202221
0.00164985
0.00114841
0.000727252
0.000448426
0.000384009
0.000478268
0.00062647
0.000722102
0.000703624
0.000602069
0.000485963
0.000396969
0.000366822
0.000328014
0.000429614
0.000433579
0.000430284
0.000426823
0.000424742
0.000328749
0.000335295
0.000339725
0.000340465
0.000346625
0.000591258
0.000583138
0.000565473
0.000551069
0.00054216
0.000783366
0.00079283
0.00080534
0.0008176
0.000835507
0.000773842
0.000756541
0.000754193
0.000749928
0.000744409
0.00113888
0.00114952
0.00116863
0.00119732
0.001227
0.00139181
0.00135684
0.00134066
0.00132863
0.00132055
0.00125736
0.00126101
0.0012646
0.0012689
0.00128993
0.00167124
0.00164942
0.00162332
0.00160633
0.00159749
0.00166932
0.00167515
0.00168478
0.00169867
0.00171916
0.00134775
0.00133486
0.0013387
0.00134396
0.00134709
0.00147264
0.0014725
0.0014722
0.00147264
0.00148457
0.00156369
0.00156718
0.00156597
0.00156297
0.00156041
0.00165502
0.00166327
0.00167211
0.00167156
0.00163691
0.00169708
0.00173168
0.00172831
0.0017167
0.00170534
0.00193239
0.00193989
0.00195129
0.0019549
0.00190286
0.00191771
0.00194678
0.00195027
0.00195129
0.00195132
0.00197241
0.0019711
0.00196669
0.00195585
0.00190886
0.00204814
0.00209311
0.00210534
0.00211133
0.00211499
0.0021982
0.00219952
0.00220062
0.00219612
0.00215469
0.00222167
0.00224209
0.00224709
0.00225218
0.00225636
0.00233724
0.00234313
0.00235169
0.00234788
0.00226373
0.00207469
0.00204202
0.0020523
0.00207295
0.00208782
0.00238388
0.00238015
0.00237497
0.00236661
0.00232252
0.00227892
0.00226304
0.00226271
0.00226718
0.00227045
0.00224576
0.00225169
0.00225868
0.00225155
0.0021773
0.00202431
0.00213742
0.00214722
0.00214028
0.00213346
0.002265
0.00227147
0.00228276
0.00227722
0.00214678
0.00189506
0.00192053
0.00193253
0.00194081
0.00194579
0.00208684
0.00209072
0.00209308
0.00208353
0.00204441
0.00204173
0.00194244
0.00193439
0.0020438
0.00205962
0.00192503
0.00198233
0.00199242
0.00199623
0.00199757
0.00206688
0.00206854
0.00207053
0.0020693
0.00201163
0.00197557
0.00200188
0.00195331
0.00192058
0.00191055
0.00194428
0.00196108
0.00196595
0.00190484
0.00196204
0.00199817
0.00197619
0.00197828
0.00218925
0.00207064
0.00201861
0.0020709
0.00201946
0.00199481
0.00195621
0.00187576
0.00190238
0.00197035
0.0020198
0.00202376
0.00206935
0.00204517
0.0020054
0.00199334
0.00197885
0.00198619
0.00204447
0.00210285
0.00205173
0.00202348
0.00198231
0.00193528
0.00192091
0.00198446
0.0020141
0.00200608
0.0019605
0.00198673
0.00198847
0.0019416
0.00193647
0.00197819
0.00194908
0.00192146
0.00190872
0.00194935
0.00194456
0.00187762
0.00187841
0.00197138
0.00191471
0.00185641
0.00192651
0.00193996
0.00197694
0.0020152
0.00199078
0.00196028
0.00193507
0.00196344
0.00198779
0.0019287
0.00195351
0.00199899
0.00194956
0.00195612
0.00194344
0.00195391
0.00205462
0.00196331
0.00198212
0.00207985
0.00187959
0.00185063
0.00167025
0.00145061
0.00118021
0.000920165
0.000827989
0.000871877
0.0011688
0.00126671
0.00154099
0.00167421
0.00169683
0.0017084
0.00171707
0.00200584
0.00202114
0.00203833
0.00204696
0.00201913
0.0014671
0.00151575
0.0015239
0.00152431
0.00152106
0.00214465
0.00216463
0.00219027
0.00220402
0.00218801
0.00159896
0.001552
0.00154716
0.00154997
0.00155055
0.0021841
0.00220417
0.00223412
0.00226597
0.00225688
0.00225675
0.0023078
0.00230826
0.00229623
0.00228496
0.00168355
0.00168551
0.00168346
0.00167809
0.0016652
0.00163293
0.00166274
0.00165961
0.00165611
0.00165313
0.00203161
0.0020408
0.00205378
0.00207461
0.00215636
0.0016923
0.00163744
0.00163264
0.00163476
0.00163398
0.001776
0.00177804
0.00178141
0.00179115
0.00183521
0.00219775
0.00211227
0.00208437
0.00207218
0.00206509
0.00198977
0.00199759
0.00201232
0.00204021
0.0020736
0.00214674
0.00206611
0.00204435
0.00203721
0.00203412
0.00199688
0.00200075
0.00201117
0.00203464
0.0020778
0.00204619
0.00200206
0.00199636
0.00199856
0.0020013
0.00175485
0.00171302
0.00170838
0.0017086
0.00170743
0.00178077
0.00178136
0.00178078
0.001783
0.00180917
0.00206526
0.002034
0.00201352
0.00200443
0.00200174
0.00197931
0.00197674
0.00197696
0.00199211
0.0020628
0.00207889
0.00207676
0.00208007
0.00208054
0.00207965
0.00212428
0.00212429
0.00212395
0.00212134
0.00211447
0.00220089
0.00211502
0.00195261
0.00173839
0.00163656
0.00163112
0.00163341
0.00163093
0.00162673
0.00184941
0.0018505
0.00185462
0.00187201
0.00190726
0.00190967
0.00188998
0.00188176
0.00188204
0.00188411
0.00169173
0.00169702
0.00170193
0.00169836
0.00168642
0.00151756
0.0014964
0.00148392
0.00147965
0.00147838
0.00124101
0.00124102
0.00124492
0.00126029
0.00129087
0.00124519
0.00122656
0.00121989
0.00121975
0.00122103
0.00107721
0.00108603
0.00109501
0.00109758
0.00109298
0.00115007
0.00118185
0.00118162
0.00117051
0.0011593
0.000820819
0.000818059
0.000816692
0.000821469
0.000839895
0.000858258
0.000839488
0.000839759
0.000844407
0.000848038
0.000798575
0.000800505
0.000803439
0.000809017
0.000825973
0.000843958
0.000853943
0.000847382
0.000836231
0.000827124
0.000591275
0.000589127
0.000587209
0.000588953
0.00060245
0.000581004
0.000546043
0.000540313
0.00054094
0.000542127
0.000541639
0.000544908
0.000548962
0.000554003
0.000568252
0.000562333
0.000554546
0.000546575
0.000537152
0.00052909
0.000574752
0.000574858
0.000577049
0.000586834
0.000619582
0.000749563
0.000716619
0.000706227
0.000704498
0.000704528
0.000617342
0.000539798
0.000574825
0.000556225
0.00054848
0.000542982
0.000538867
0.000457074
0.000451275
0.00048104
0.000483471
0.000480042
0.00047407
0.000468754
0.000461431
0.000459729
0.000459432
0.00046508
0.000494246
0.000447636
0.000443666
0.000440764
0.000436468
0.000432639
0.000374773
0.000374521
0.000374801
0.00037741
0.000389245
0.000335733
0.00032502
0.000322188
0.000323651
0.000325444
0.00036678
0.00036887
0.000372844
0.00038321
0.000409916
0.000435163
0.000425331
0.000421149
0.000414369
0.000407577
0.000552795
0.000556555
0.000565118
0.000582349
0.000608637
0.00082397
0.000776086
0.000757498
0.00074774