/*--------------------------------*- C++ -*----------------------------------*\
  =========                 |
  \\      /  F ield         | OpenFOAM: The Open Source CFD Toolbox
   \\    /   O peration     | Website:  https://openfoam.org
    \\  /    A nd           | Version:  7
     \\/     M anipulation  |
\*---------------------------------------------------------------------------*/
FoamFile
{
    version     2.0;
    format      ascii;
    class       volVectorField;
    location    "7.5";
    object      wallShearStress;
}
// * * * * * * * * * * * * * * * * * * * * * * * * * * * * * * * * * * * * * //

dimensions      [0 2 -2 0 0 0 0];

internalField   uniform (0 0 0);

boundaryField
{
    outlet1
    {
        type            calculated;
        value           uniform (0 0 0);
    }
    Wall
    {
        type            calculated;
        value           nonuniform List<vector> 
40276
(
(0.000424742 4.96017e-05 0.000168713)
(-0.000186924 -8.57009e-06 0.000415603)
(-0.000190645 -7.8163e-06 0.000407538)
(9.45588e-05 -1.12379e-05 0.000157302)
(8.11866e-05 1.96193e-05 0.000155887)
(8.35708e-05 5.82137e-05 0.000162479)
(9.88573e-05 4.39916e-05 0.000171826)
(0.000133999 3.65736e-05 0.000186568)
(0.000103797 2.51563e-05 0.000168575)
(0.000100705 6.87348e-06 0.000172939)
(0.000387358 3.85207e-05 0.000410701)
(0.000468269 1.58107e-05 0.000445431)
(0.000584745 4.02839e-05 0.000939902)
(0.000562582 3.86632e-05 0.000870409)
(0.000484848 -1.54337e-05 0.000333077)
(0.000433441 1.80843e-06 0.000362224)
(0.000392639 2.08343e-05 5.85836e-05)
(0.000351211 2.36667e-05 2.46008e-05)
(-0.000110572 -1.08424e-05 -0.000170541)
(-0.000119457 -3.82692e-05 -0.000190017)
(-0.000155023 3.91576e-05 0.000211592)
(-0.000186143 4.41992e-05 0.000198452)
(-0.000119888 3.22281e-05 6.79097e-05)
(-0.000138766 2.96446e-05 6.42262e-05)
(-0.000100077 2.37195e-05 4.33234e-05)
(-0.000112352 2.47677e-05 3.75361e-05)
(-0.000123403 4.09608e-05 2.17698e-05)
(-0.000120889 4.13863e-05 1.59117e-05)
(-0.000181493 5.85983e-05 3.28321e-05)
(-0.000162855 5.02718e-05 2.39552e-05)
(-0.000120696 3.93589e-05 7.1325e-05)
(-0.000135092 4.71794e-05 7.87436e-05)
(-5.25643e-05 -3.17669e-06 0.000159653)
(-4.68075e-05 -4.86533e-06 0.000148383)
(-6.23926e-05 1.02783e-05 8.07371e-06)
(-6.12755e-05 1.16709e-05 7.62671e-06)
(0.000566787 6.60208e-05 0.000213309)
(0.00061606 4.76753e-05 0.000235623)
(0.00105737 0.000255643 0.000400423)
(0.00119615 0.000328215 0.000422093)
(0.000990525 6.29872e-05 0.000160796)
(0.000950576 3.51575e-05 0.000187821)
(-4.99624e-05 -1.43428e-05 -0.000387464)
(-2.99435e-05 -1.08992e-05 -0.000351343)
(-5.3259e-05 -2.13232e-06 -0.000352769)
(-4.49226e-05 -6.15919e-06 -0.000289939)
(-7.37808e-05 -3.60768e-07 -0.000297971)
(-5.64178e-05 -3.17832e-06 -0.000240498)
(-6.53318e-05 -8.17777e-07 -0.00020702)
(-6.36054e-05 1.05812e-06 -0.000172107)
(-5.21619e-05 -1.15408e-06 -0.000141014)
(-6.42554e-05 1.36265e-06 -0.000147993)
(-5.55363e-05 -1.73219e-07 -0.000117973)
(-5.87125e-05 2.20837e-06 -0.000119422)
(0.000441706 8.11093e-05 0.00026066)
(0.000459843 9.51394e-05 0.000229801)
(-1.73703e-05 1.32174e-05 0.000131135)
(6.41114e-05 2.19879e-05 0.000191073)
(-1.02655e-05 8.61104e-06 0.000133794)
(-0.000457558 -0.000150033 -0.000437828)
(-0.000486707 -0.000124819 -0.000448117)
(1.90585e-05 3.45331e-05 0.00029153)
(-1.27951e-05 -1.18273e-05 0.00022534)
(1.04426e-05 -1.043e-06 -4.66335e-05)
(1.32461e-05 2.85923e-06 -4.34879e-05)
(6.57527e-06 -6.45425e-09 -4.25435e-05)
(1.99754e-06 -2.67393e-06 -4.11181e-05)
(1.14099e-05 6.17406e-08 -4.35626e-05)
(-0.000117626 -1.91488e-05 -0.000107057)
(-0.00012969 -8.53673e-06 -0.000116258)
(-5.31932e-05 4.26105e-06 -9.74205e-05)
(-5.40833e-05 9.28921e-08 -9.91762e-05)
(-1.78739e-05 1.34078e-06 -1.81603e-05)
(-1.7867e-05 1.35802e-06 -1.79348e-05)
(-1.61812e-05 1.41586e-06 -1.75963e-05)
(-1.5316e-05 1.72918e-06 -1.69382e-05)
(-1.7463e-05 7.88119e-07 -1.74243e-05)
(2.31309e-05 -1.65124e-06 -6.00166e-06)
(2.00653e-05 -1.72337e-06 -9.75439e-06)
(-8.35073e-07 4.40864e-06 2.62864e-07)
(-8.53241e-08 -2.12412e-07 1.99561e-07)
(7.80709e-06 -1.1148e-06 -4.1636e-07)
(1.87745e-05 1.77675e-07 1.28974e-05)
(1.82172e-05 3.73733e-07 1.32442e-05)
(2.86021e-05 -1.70699e-06 2.01224e-05)
(5.80689e-06 5.08156e-07 -3.7653e-05)
(1.45987e-06 -1.84898e-06 -3.60791e-05)
(4.69674e-06 9.63002e-07 -3.28947e-05)
(2.58074e-05 -1.9203e-06 1.86492e-05)
(2.47558e-05 -1.46846e-06 1.78585e-05)
(2.12673e-05 -8.75311e-07 1.58346e-05)
(-4.46934e-05 -4.70203e-06 -4.04452e-05)
(5.24508e-07 -1.15108e-06 -3.15918e-05)
(3.61753e-06 1.2669e-06 -2.88378e-05)
(-1.15432e-07 -5.78022e-07 -2.78399e-05)
(-7.37795e-07 -3.28258e-07 -2.43823e-05)
(-1.30712e-06 5.52985e-08 -2.13873e-05)
(-2.09198e-06 2.14037e-07 -1.9317e-05)
(-5.40033e-06 -3.20603e-07 -1.55115e-05)
(-6.05101e-06 -1.21504e-07 -1.46132e-05)
(-6.879e-06 7.13063e-10 -1.42415e-05)
(-9.91664e-06 -2.89095e-07 -1.43907e-05)
(-1.01532e-05 -2.1232e-07 -1.47961e-05)
(-5.01748e-05 -1.00799e-06 -4.40181e-05)
(-1.04397e-05 -3.12431e-08 -1.56479e-05)
(-1.88868e-05 -3.67155e-06 -2.3048e-05)
(-1.57355e-05 -3.64294e-06 -1.84131e-05)
(-1.03083e-05 -1.24862e-07 -1.62422e-05)
(-1.0232e-05 3.75399e-08 -1.7275e-05)
(-9.86344e-06 -5.66255e-07 -1.76249e-05)
(-1.00541e-05 4.25822e-08 -1.87281e-05)
(-9.52779e-06 -6.26046e-07 -1.94969e-05)
(-8.95305e-06 -2.71907e-07 -1.9912e-05)
(-8.71864e-06 -1.06859e-06 -2.14437e-05)
(-8.40233e-06 -1.67632e-06 -2.0103e-05)
(4.20179e-06 -8.87393e-07 -2.64485e-05)
(4.06855e-06 -2.89745e-06 -2.77989e-05)
(2.60141e-06 -2.90583e-06 -2.62368e-05)
(-0.000276989 -6.29619e-05 0.000486923)
(-0.000280044 -6.14564e-05 0.000441513)
(-1.5019e-05 -1.24507e-06 5.39583e-06)
(-1.25487e-05 -1.4203e-06 6.62836e-06)
(-4.15654e-05 -1.78846e-06 1.63411e-05)
(-3.59437e-05 -3.11287e-06 1.51814e-05)
(-4.36624e-06 -8.46713e-06 -5.40741e-06)
(-2.07238e-06 -8.36502e-06 -2.66761e-06)
(-0.000127397 2.52236e-05 0.000183928)
(-0.000110627 3.39431e-05 0.000156439)
(-0.000160202 -1.78075e-05 0.000274301)
(-0.000139975 -2.38703e-05 0.000236121)
(-0.000102843 -6.17804e-06 0.000172675)
(-8.99787e-05 -9.2336e-06 0.000148618)
(-0.000156201 9.37005e-05 0.000466416)
(-0.000216438 0.000169328 0.000651728)
(7.35326e-06 -1.18517e-05 0.000188608)
(-1.31607e-06 -4.59308e-06 0.000159398)
(-0.000102159 2.75755e-05 0.000193006)
(-5.57963e-05 1.32856e-06 0.000167422)
(-0.00018 -5.72137e-05 0.000490348)
(-0.000179652 -4.03372e-05 0.000491069)
(-0.000179517 -4.52683e-05 0.000525347)
(-0.000195218 -2.15022e-05 0.000526843)
(-0.000559875 1.77342e-06 -0.000151414)
(-0.000642467 2.4861e-06 -0.000183603)
(-2.27554e-05 -7.96786e-05 9.95789e-06)
(-2.65495e-05 -7.89424e-05 1.19239e-05)
(-2.14441e-05 -4.38739e-05 6.54972e-05)
(-2.52082e-05 -5.36634e-05 8.18387e-05)
(-2.90473e-05 -5.25581e-05 6.60945e-05)
(-2.32164e-05 -4.04613e-05 5.3755e-05)
(-1.54686e-05 -8.61463e-05 8.48782e-06)
(-1.98959e-05 -9.83539e-05 6.53325e-06)
(-2.34951e-05 -8.34769e-05 8.81932e-06)
(-2.18827e-05 -8.64845e-05 9.21271e-06)
(-2.31359e-05 -0.000128636 -1.56103e-05)
(-1.99742e-05 -0.000111411 -1.41258e-05)
(-7.64293e-06 -5.66219e-05 -3.31689e-06)
(-9.87882e-06 -5.05372e-05 -4.75771e-06)
(-6.09839e-05 -3.12434e-05 9.45525e-05)
(-5.57723e-05 -3.30693e-05 8.93531e-05)
(9.01449e-05 3.82287e-06 -0.000233557)
(9.82861e-05 -5.09706e-06 -0.000218246)
(-0.000137175 -5.95177e-05 -1.25091e-05)
(-0.000135999 -6.6508e-05 -1.47041e-05)
(-0.000298339 -4.80143e-05 0.000147135)
(-0.000320235 -5.21505e-05 0.000138521)
(-0.000291716 -7.46886e-05 -2.60597e-05)
(-0.000285094 -6.18953e-05 -3.52695e-05)
(-0.000174146 0.000193025 0.000237112)
(-0.000168016 0.000241611 0.000220212)
(-0.000249062 -4.48442e-05 1.31731e-05)
(-0.000131147 -4.67553e-05 -1.84869e-05)
(-0.000206843 -7.7506e-05 7.47123e-05)
(-0.000178208 -7.5928e-05 6.31765e-05)
(-0.000227706 -5.1917e-05 5.88458e-05)
(-6.74173e-05 -4.22697e-05 -7.10713e-06)
(-3.91075e-05 -2.09147e-05 6.05084e-05)
(-3.22275e-05 -1.93927e-05 5.58622e-05)
(0.000547089 -0.000214209 0.000412685)
(0.000502022 -0.000188268 0.00034445)
(0.00048287 -0.000268189 0.000227746)
(0.000456208 -0.000198965 0.000257899)
(0.000465046 -0.00023055 0.000255812)
(0.000233504 -0.000149264 0.000185583)
(0.000328204 -0.000206921 0.000216636)
(0.0002569 -0.000151025 0.000200097)
(0.000425754 -0.000191462 0.000348451)
(0.000448406 -0.000234435 0.000331945)
(0.000443066 -0.000229932 0.000288549)
(0.000341777 -0.000226963 0.000188896)
(0.000445818 -0.000277796 0.000188433)
(0.000371556 -0.000204311 0.000242629)
(0.000140435 -7.12186e-05 0.000160662)
(0.00022687 -0.000150706 0.000185402)
(0.00017484 -8.78857e-05 0.000180867)
(0.000129922 -5.58259e-05 0.00016498)
(7.40192e-05 4.66514e-05 0.000155951)
(0.000286785 0.000112167 4.21426e-05)
(0.000348136 0.000111382 9.36791e-05)
(0.000297633 7.4481e-05 0.000106205)
(0.000315162 5.92499e-05 4.50505e-05)
(0.000375697 6.31553e-05 9.6408e-05)
(0.000339305 9.94034e-05 8.74825e-05)
(0.000304751 7.44141e-05 6.47395e-05)
(9.78164e-05 5.37606e-05 8.73608e-05)
(0.00011459 6.45926e-05 8.63794e-05)
(9.13807e-05 1.20834e-05 0.000140003)
(9.57404e-05 1.77978e-05 0.000138854)
(0.000108951 1.00268e-05 0.000162182)
(9.0132e-05 8.97608e-07 0.000145942)
(0.000101298 3.42078e-05 0.000136321)
(8.1263e-05 3.55087e-05 0.000104318)
(7.8739e-05 3.86439e-05 7.66473e-05)
(7.31168e-05 1.90791e-05 9.44615e-05)
(6.71754e-05 8.23906e-06 0.000109467)
(5.12326e-05 -8.45778e-08 8.6843e-05)
(6.53833e-05 -5.26409e-06 0.000105056)
(5.6224e-05 1.67719e-05 7.37675e-05)
(4.7929e-05 1.44477e-05 6.28043e-05)
(5.17801e-05 1.28037e-05 7.16094e-05)
(0.000153811 9.25085e-05 4.54889e-05)
(0.000185432 0.000102425 6.45015e-05)
(0.000189726 9.25688e-05 7.56341e-05)
(0.00018169 8.76479e-05 4.45196e-05)
(0.00011331 6.65518e-05 7.43457e-05)
(0.00013031 7.5764e-05 4.93942e-05)
(0.00013923 8.17666e-05 2.88607e-05)
(0.000141729 6.96657e-05 3.99775e-05)
(0.000123586 6.7262e-05 4.49078e-05)
(0.000270223 0.000110774 3.48647e-05)
(0.000222368 0.000105065 3.24501e-05)
(0.000287181 0.000101893 4.89413e-05)
(0.000261347 7.41284e-05 3.40704e-05)
(0.000233212 9.73347e-05 2.07696e-05)
(0.000213679 7.33828e-05 2.67297e-05)
(8.04382e-05 4.73289e-05 5.30754e-05)
(8.64165e-05 4.53843e-05 5.8483e-05)
(6.87966e-05 3.30851e-05 6.56008e-05)
(0.000105194 6.41019e-05 4.57278e-05)
(5.90192e-05 2.70782e-05 5.67259e-05)
(7.07219e-05 4.30259e-05 3.58556e-05)
(0.000117051 6.32979e-05 5.51492e-05)
(0.000153501 7.9754e-05 2.37404e-05)
(7.59408e-05 5.06608e-05 8.76961e-06)
(8.83227e-05 4.82963e-05 2.64934e-05)
(7.7188e-05 4.97187e-05 2.07474e-05)
(0.000139853 8.2621e-05 6.27711e-06)
(0.00017141 8.64708e-05 -1.5152e-05)
(0.000155172 6.0347e-05 2.22174e-05)
(0.000150813 7.43333e-05 9.70529e-06)
(0.00031483 2.83449e-05 0.000550424)
(0.000352859 5.72535e-05 0.000639857)
(0.000320811 -1.34017e-06 0.000572268)
(0.000332477 2.89295e-05 0.000588383)
(0.000354613 9.91353e-05 0.000394028)
(0.000383251 0.000104393 0.000467999)
(0.000274626 9.43995e-05 0.000385093)
(0.000299744 8.86406e-05 0.000440896)
(0.00029452 0.00010573 0.000440486)
(0.00027605 8.75022e-05 0.000453033)
(0.000391283 0.000156391 0.000505624)
(0.000328007 0.000132336 0.000379696)
(0.000373416 0.000137982 0.000473116)
(0.000237539 8.98458e-05 0.000385382)
(0.000318338 0.000115667 0.000481258)
(0.000405061 0.000129415 0.000382452)
(0.000363523 0.000134515 0.000451421)
(0.000356298 0.000131222 0.000452256)
(0.000410547 0.000135381 0.000561745)
(0.000426169 0.000169521 0.000496898)
(0.00046927 0.000183529 0.000494307)
(0.000461482 0.000191558 0.000466669)
(0.000450848 0.000158753 0.000557676)
(0.00043548 0.0001633 0.000557577)
(0.000397425 7.28058e-05 0.000463472)
(0.000509176 7.83383e-05 0.000495252)
(0.000390224 9.19565e-05 0.000476883)
(0.00030226 9.39531e-05 0.000373187)
(0.000381636 9.05004e-05 0.000465655)
(0.000417138 7.04057e-05 0.000406042)
(0.000312985 5.57095e-05 0.000305261)
(0.000338085 0.000101525 0.000366264)
(0.000362573 8.35432e-05 0.000355089)
(0.000366647 9.36212e-05 0.000346744)
(0.000491241 -4.16017e-05 0.000430157)
(0.000505758 -5.9521e-05 0.000427843)
(0.000517669 -0.000138107 0.000415155)
(0.000404674 -6.26263e-05 0.000370674)
(0.000486778 -0.000118403 0.000325954)
(0.00038205 -9.31581e-06 0.000341079)
(0.000530653 -0.000128666 0.000354357)
(0.000363341 -2.80224e-05 0.000292811)
(0.000468772 -9.85603e-05 0.000284512)
(0.000548498 -0.000208082 0.000270527)
(0.00034234 5.77856e-05 0.000355778)
(0.00034197 8.58249e-05 0.000373743)
(0.000381321 2.4632e-05 0.000311282)
(0.000378815 6.40308e-05 0.00032864)
(0.000396045 0.00014244 0.000377972)
(0.000429966 0.000148221 0.000510113)
(0.000428005 0.000146278 0.000457692)
(0.000442521 0.000127372 0.000372007)
(0.000498045 0.000162419 0.000415726)
(0.000496984 0.000189937 0.00052389)
(0.000447045 0.000158146 0.000522741)
(0.000472452 0.000155725 0.000551962)
(0.000471595 0.000172387 0.00039812)
(0.00045178 0.000158977 0.000524618)
(0.000451974 0.00016405 0.000523478)
(0.000572358 0.000208167 0.000657008)
(0.00054606 0.000195747 0.000513097)
(0.000402338 0.000116859 0.000369405)
(0.00057033 0.000179717 0.000421283)
(0.000453082 0.000104511 0.000392631)
(0.000582275 0.00014711 0.000398868)
(0.000513636 0.000178177 0.000439506)
(0.000518567 0.000163078 0.000511394)
(0.000694633 0.000261767 0.000523935)
(0.00055049 0.00018702 0.000432887)
(0.000526008 0.000159815 0.000456269)
(0.000735348 0.000258874 0.000483477)
(0.000567756 0.000245456 0.000484205)
(0.000604303 0.000209176 0.000592009)
(0.000559708 0.000182006 0.000625327)
(0.000662473 0.000226057 0.000620721)
(0.000660297 0.000231492 0.000599447)
(0.000349943 0.000140173 0.000456185)
(0.000341536 0.000130938 0.000450639)
(0.000234814 7.03957e-05 0.000425462)
(0.00033861 0.000128481 0.00048863)
(0.00042584 0.000121076 0.000632419)
(0.000389539 0.00011143 0.00058105)
(0.00037803 0.000146249 0.000491741)
(0.00039755 0.000154214 0.000510888)
(0.000380734 0.000147374 0.000559899)
(0.000362054 6.22704e-05 0.000647438)
(0.000312773 4.29997e-05 0.000579403)
(0.000367288 0.000108523 0.000607542)
(0.000350039 9.53646e-05 0.000602632)
(0.000313112 4.23756e-05 0.000507087)
(0.000424022 0.000170331 0.000537948)
(0.000448859 0.000138937 0.000627302)
(0.00040046 0.000122471 0.000610432)
(0.000386019 -5.04497e-06 0.000637363)
(0.00047548 0.000144079 0.00071118)
(0.000357395 5.93859e-05 0.000605005)
(0.000463074 0.000186019 0.000524432)
(0.000502035 0.000194932 0.000562968)
(0.000447284 0.000140936 0.00062494)
(0.000437881 0.000175324 0.000559616)
(0.000505976 0.000204232 0.00056353)
(0.000502955 0.000127103 0.000695159)
(0.000513224 0.000144672 0.000782119)
(0.000409044 4.76811e-05 0.000674398)
(0.000375319 4.60016e-05 0.000614512)
(0.000407206 7.75895e-05 0.000648744)
(0.000462487 0.000129931 0.000689449)
(0.000394836 7.4269e-05 0.000607153)
(0.000513639 0.000219211 0.000602133)
(0.000512485 0.000105609 0.000749732)
(0.000592477 0.000191446 0.000852117)
(0.00028191 1.16243e-05 0.000492241)
(0.000293124 5.53194e-05 0.000501103)
(0.000357537 0.000131724 0.000559419)
(0.000376363 8.37248e-05 0.000637452)
(0.000354629 2.62172e-05 0.000588078)
(0.000437522 9.35333e-05 0.000694864)
(0.000335746 -1.21989e-05 0.000567716)
(0.000337855 4.02243e-05 0.000559095)
(0.000431071 0.000143402 0.000677689)
(0.000359761 4.58665e-05 0.000612205)
(0.000314625 3.70805e-05 0.000527986)
(0.000382962 -4.69244e-06 0.000631913)
(0.000332579 4.28565e-05 0.000558586)
(0.000353734 4.60026e-05 0.000583259)
(0.000429993 4.28343e-05 0.000702513)
(0.000335991 8.75012e-05 0.000577815)
(0.000334942 5.98373e-05 0.000564658)
(0.000427222 -5.76351e-05 0.000654937)
(0.000478885 0.000129006 0.000753929)
(0.000411826 -2.13769e-05 0.000693343)
(0.000524104 6.56279e-05 0.000856987)
(0.000400099 1.26267e-05 0.00066844)
(0.000420355 3.51929e-05 0.000685051)
(0.000529562 0.000159983 0.000768997)
(0.00042454 5.37091e-05 0.000678708)
(0.000485206 3.5349e-05 0.000772529)
(0.000522819 4.52175e-05 0.000856764)
(0.000532877 1.93657e-05 0.000855471)
(0.000420348 3.57252e-05 0.000673687)
(0.000475312 4.16443e-05 0.000754228)
(0.000425011 1.52208e-05 0.000674997)
(0.000484849 4.92928e-05 0.000767375)
(0.000547175 0.000175833 0.000684988)
(0.000535548 0.000192548 0.000612914)
(-2.10053e-05 -4.91135e-05 0.000160208)
(0.000565909 0.000154136 0.00077486)
(0.000492139 0.000139595 0.000663913)
(0.000615309 0.000227588 0.000664114)
(0.000574314 0.000221671 0.000599998)
(0.000609688 0.000214677 0.000673913)
(-2.52631e-05 -4.87891e-05 0.000159648)
(0.000543731 0.000173117 0.000710562)
(0.0005635 0.000208388 0.000657034)
(0.000610657 0.000229208 0.000685193)
(0.000555719 0.000168327 0.000764409)
(0.000624889 0.000178343 0.000912132)
(-2.29036e-05 -4.85703e-05 0.000156927)
(0.000468707 7.23584e-05 0.000727713)
(0.000433421 6.31624e-05 0.000710141)
(0.000467068 9.68478e-05 0.000705548)
(0.000526631 5.98139e-05 0.000795436)
(0.000464065 0.000107101 0.000702678)
(-2.53735e-05 -3.80829e-05 0.00015994)
(0.000575798 0.000236128 0.000662871)
(0.000594515 0.000121605 0.000836825)
(0.000681939 0.000217007 0.000929789)
(0.000655836 0.000219114 0.000773339)
(0.000714763 0.000252304 0.0006481)
(0.000771699 0.000284932 0.000655736)
(0.000645491 0.000190519 0.000832847)
(0.000603977 0.000175318 0.000745593)
(0.000633278 0.000257529 0.000626393)
(0.000667018 0.000237242 0.00067868)
(0.000642004 0.000203842 0.000758888)
(0.000711381 0.000245018 0.000809332)
(0.000736651 0.000283055 0.000776196)
(0.00065754 0.000204766 0.000836437)
(0.000684581 0.000171557 0.000940315)
(0.000561465 0.000137506 0.000783091)
(0.000626157 0.000139817 0.000974114)
(0.000509378 0.000104804 0.000751969)
(0.000587139 8.11325e-05 0.000888272)
(0.000729976 0.000241289 0.000925265)
(0.000606072 0.000196196 0.000765988)
(0.000645071 0.000168807 0.000920412)
(0.000537457 8.99218e-05 0.000867127)
(0.000557011 0.000150015 0.00078835)
(0.00072876 0.000132337 0.00102286)
(0.000640405 0.000146477 0.000994082)
(0.000591017 6.60539e-05 0.000948913)
(0.000592358 2.01929e-05 0.000943597)
(0.000474684 2.93435e-05 0.000787776)
(0.000467207 6.56489e-05 0.000733474)
(0.000601849 0.000119997 0.000870987)
(0.000614551 0.000126826 0.000960336)
(0.000577239 2.78159e-05 0.000904301)
(0.000593306 3.86392e-05 0.000934462)
(0.000602565 -3.9057e-05 0.000936612)
(0.000583956 3.9209e-05 0.000894044)
(0.000668974 0.000132074 0.000971298)
(-3.13469e-05 -4.31817e-05 0.000168326)
(0.000501137 -2.03741e-06 0.000820871)
(0.000456068 5.67173e-05 0.000718304)
(0.000649513 0.000150676 0.000957035)
(0.000676799 0.000190349 0.00101421)
(0.000565114 -1.58328e-06 0.000944339)
(0.000703729 6.32379e-05 0.00111134)
(0.000526205 4.16902e-05 0.000827975)
(0.000649655 3.00466e-05 0.000996629)
(0.000519354 5.26798e-05 0.000821834)
(0.00050023 -1.85844e-05 0.000762123)
(0.000642446 -9.00695e-05 0.000952599)
(0.000688899 3.24458e-05 0.00109199)
(0.000689632 1.03475e-06 0.00108113)
(0.000367544 -5.08553e-05 0.00053486)
(0.000289585 1.99497e-05 0.000449295)
(0.000324409 9.7086e-06 0.000465926)
(0.000313811 9.88807e-06 0.0004803)
(0.00022566 4.07607e-05 0.000403497)
(0.000299832 2.81051e-05 0.000464561)
(0.000383284 3.05521e-06 0.00049823)
(0.00030055 4.66681e-05 0.000469777)
(0.000349415 4.4886e-05 0.000620769)
(0.00035106 6.19223e-05 0.000595364)
(-2.31163e-05 -4.18211e-05 0.000153506)
(-2.67839e-05 -4.38538e-05 0.000160405)
(-2.47843e-05 -4.05201e-05 0.000148584)
(-2.62668e-05 -3.68423e-05 0.000149447)
(0.000392093 3.31582e-05 0.000613501)
(0.000354836 7.53431e-05 0.000562474)
(0.000422557 1.47648e-05 0.000567061)
(0.000379142 3.20864e-05 0.000509808)
(0.000397332 -1.3109e-05 0.000512954)
(0.00039402 3.93419e-06 0.000484166)
(-2.97085e-05 -3.6233e-05 0.000154823)
(0.000415986 1.89109e-06 0.000535776)
(-3.5031e-05 -2.89057e-05 0.000164899)
(-3.01238e-05 -3.46143e-05 0.000155914)
(0.000445835 1.18572e-05 0.000222784)
(0.000443228 1.58416e-05 0.000270674)
(0.000422374 -1.4274e-05 0.000257181)
(-3.34638e-05 -3.44583e-05 0.00015394)
(-2.65169e-05 -3.83373e-05 0.00016457)
(-2.59128e-05 -4.18763e-05 0.000161114)
(-3.23158e-05 -3.378e-05 0.000175006)
(-3.38569e-05 -4.23183e-05 0.000182612)
(-2.97e-05 -3.03044e-05 0.000166621)
(-2.85638e-05 -2.62565e-05 0.000159424)
(-3.46611e-05 -3.44968e-05 0.000159012)
(0.000394534 6.34666e-05 7.2705e-05)
(0.000455375 6.40473e-05 0.000137835)
(0.000374625 3.28395e-05 8.08118e-05)
(0.000360074 6.63266e-05 5.90712e-05)
(0.000375496 4.68406e-05 8.25819e-05)
(0.000436679 1.09113e-05 0.00012614)
(0.00042242 1.22698e-05 0.00018772)
(0.000448801 -3.05315e-05 0.00019617)
(0.000442495 4.05783e-07 0.000162599)
(0.000422573 -5.34591e-07 0.00020434)
(0.000411523 2.86557e-05 8.9584e-05)
(0.000429242 -8.63327e-06 9.61239e-05)
(0.000436378 -9.23847e-06 0.000385522)
(0.000414199 5.51792e-06 0.000420238)
(0.000401138 -2.36268e-06 0.000437336)
(0.000363024 5.58218e-06 0.000420464)
(0.000394211 3.13979e-06 0.000461443)
(0.000331499 2.46492e-05 0.000429083)
(0.000462869 -4.91893e-06 0.000414905)
(0.000469052 -2.57538e-05 0.000355319)
(0.000472821 -1.51926e-05 0.000340788)
(0.000413216 -4.82086e-06 0.00035415)
(0.000393091 -2.30957e-05 0.000443975)
(0.000408422 -1.48696e-05 0.000398969)
(0.000434335 2.21859e-05 0.000514655)
(0.000501699 -3.60152e-05 0.000248593)
(0.000462996 -5.19806e-05 0.000333247)
(0.000473687 -5.31265e-05 0.000280238)
(0.000487278 -3.45761e-05 0.000353855)
(0.000521926 -8.73923e-05 0.000229027)
(0.000461083 -4.98182e-05 0.000385907)
(0.00042886 -4.38617e-05 0.000448911)
(0.000468669 -7.1525e-05 0.000430198)
(0.000472504 -1.57789e-05 0.000519632)
(0.000553752 -0.000102582 0.000409346)
(0.000512603 -0.000102459 0.000337693)
(0.000524551 -9.23738e-05 0.000274164)
(0.00050955 -6.92474e-05 0.000343997)
(0.000456163 -4.96569e-05 0.000177806)
(0.000453083 -4.04748e-05 0.000142049)
(0.000485009 -4.36774e-05 0.000182504)
(0.000332078 7.48398e-05 2.93297e-05)
(0.000342071 5.71619e-05 5.62248e-05)
(0.000295317 8.35858e-05 8.17582e-06)
(0.000319376 6.97429e-05 2.66208e-05)
(0.000363177 3.12001e-05 4.84083e-05)
(0.000408166 -1.49977e-06 7.09648e-05)
(0.000335395 4.55304e-05 4.76262e-05)
(0.000226465 8.24086e-05 -2.89159e-06)
(0.000308637 8.93749e-05 1.37414e-05)
(0.000143175 7.01798e-05 3.79855e-05)
(0.000153862 6.71413e-05 1.41955e-05)
(0.000255767 9.69494e-05 7.4695e-06)
(0.000269756 7.18211e-05 4.28309e-05)
(0.000248092 3.98448e-05 -1.67725e-05)
(0.000290786 4.85444e-05 2.73092e-05)
(0.000349741 3.78454e-05 1.88915e-05)
(0.000246038 7.66588e-05 5.86273e-06)
(0.000235457 5.47999e-05 1.07127e-05)
(0.000313366 5.44678e-05 1.71188e-05)
(0.000586047 -0.000137398 0.000194434)
(0.000569829 -0.000140861 0.000348939)
(0.000557059 -0.000138127 0.000276065)
(0.000582226 -0.000127209 0.000353446)
(0.000464253 -2.99576e-05 0.000110061)
(0.000506767 -0.000103251 0.000174004)
(0.00046627 -5.3856e-05 0.000151827)
(0.000470864 -7.50686e-05 0.000154934)
(0.000421076 -1.73989e-05 6.76242e-05)
(0.000456622 -5.90619e-05 0.000102103)
(0.000542984 -0.000110796 0.00013851)
(0.000587372 -0.000129965 0.000173377)
(0.000615277 -0.000198008 0.00024351)
(0.00057758 -0.000137141 0.000166129)
(0.000552569 -0.000146231 0.000196079)
(0.000385797 1.64025e-05 4.10384e-05)
(0.000397076 -8.24229e-06 4.00149e-05)
(0.00042686 -5.77682e-05 9.65383e-05)
(0.000398745 -8.24431e-06 6.97094e-05)
(0.000414715 -3.58831e-05 5.87342e-05)
(0.0003279 3.34737e-05 4.50765e-05)
(0.000374878 -4.97325e-06 4.1781e-05)
(0.000552075 -0.000102763 0.000100313)
(0.000582736 -0.000158164 0.000117605)
(0.000602207 -0.000158396 0.0001092)
(0.000465485 -6.99159e-05 0.000110035)
(0.000428449 -3.25108e-05 0.000122974)
(0.000477457 -6.95537e-05 8.92181e-05)
(0.00030799 5.4351e-05 0.000526321)
(0.000326633 3.54346e-05 0.00054302)
(0.00036963 -1.54381e-05 0.000579853)
(0.00036833 7.28e-06 0.000571959)
(0.000314583 7.34501e-05 0.000531215)
(0.000356553 7.23839e-06 0.000539899)
(0.00045568 -2.70354e-05 0.000679652)
(0.000326421 2.79776e-05 0.000533778)
(0.000357911 1.4962e-05 0.00055302)
(0.000414674 2.53363e-05 0.000638376)
(0.000406152 -1.34147e-05 0.000562769)
(0.000373484 1.05235e-05 0.000526657)
(0.000417785 1.60709e-05 0.000598017)
(0.000484957 -1.87762e-05 0.000688707)
(0.000491441 1.9048e-05 0.000809067)
(0.000368877 4.86415e-05 0.00059102)
(0.000422842 4.87675e-05 0.000684123)
(0.000405423 5.10817e-05 0.000678416)
(0.000433768 2.03777e-06 0.000665597)
(0.000575397 -6.93704e-05 0.000813036)
(0.00053225 -0.000117543 0.000709707)
(0.000440883 6.17992e-05 0.000717341)
(0.000461097 -1.61019e-05 0.000678515)
(0.000413998 3.90949e-06 0.000582051)
(0.000467701 5.44926e-06 0.000664933)
(0.000456333 -4.18942e-05 0.000567241)
(0.000413895 -3.31823e-05 0.000491763)
(0.000464265 -1.51275e-05 0.000590402)
(-3.6207e-05 -2.99902e-05 0.000160891)
(0.000531193 -0.000113669 0.000632394)
(0.000502346 -8.21031e-05 0.000534097)
(0.000545696 -3.24613e-05 0.000662289)
(0.000431535 -2.60042e-05 0.000615645)
(0.000501316 -5.96891e-05 0.000633645)
(0.000569172 -4.64096e-05 0.00074287)
(0.000519932 -0.000110551 0.000521203)
(0.000513307 -0.00010294 0.000435677)
(0.000497928 -4.61502e-05 0.000541336)
(0.000635435 -4.29502e-05 0.000968671)
(0.000444353 3.24119e-06 0.000679063)
(-3.63552e-05 -2.58208e-05 0.000148711)
(0.000474635 -2.55805e-05 0.000676382)
(0.000548969 -1.63681e-05 0.000800527)
(0.00062049 -9.25102e-05 0.000870415)
(0.000635581 -0.000137122 0.000803687)
(0.000467436 -7.04136e-05 0.000579316)
(-4.14712e-05 -2.12634e-05 0.000160465)
(0.000580883 -0.000215103 0.000533285)
(0.000603688 -8.51872e-05 0.000721531)
(0.00061075 -0.000105932 0.000826811)
(0.000541725 -0.000113534 0.000678196)
(0.000601463 -7.24784e-05 0.000793627)
(0.000666559 -0.000150886 0.000771273)
(0.000599009 -0.000139729 0.000614625)
(0.000729625 -0.000252303 0.000781899)
(0.000654218 -0.000263847 0.000602121)
(0.000680847 -0.000182009 0.000757915)
(0.000480417 1.28924e-05 0.000751168)
(0.000485353 -4.28847e-05 0.000707652)
(0.000596883 -5.80473e-05 0.000860814)
(0.000639208 -6.29536e-05 0.000953002)
(0.000628082 -0.000161547 0.000867675)
(0.000577117 1.51312e-05 0.000864958)
(0.000653936 -0.000118552 0.000973155)
(0.000618802 5.11274e-05 0.00096377)
(0.000580096 -6.99663e-05 0.000854226)
(0.000570795 -0.000106576 0.000789822)
(0.000681102 -0.00014377 0.000934278)
(0.000564658 -0.00012316 0.000771039)
(0.000619448 -0.000179633 0.000741541)
(0.000700373 -0.00016137 0.000882829)
(0.000798761 -0.000252043 0.000942722)
(0.000615946 -0.000246049 0.00069054)
(0.000734547 -0.000353095 0.000623587)
(0.000743001 -0.000199588 0.000832091)
(0.000617598 -0.000180748 0.000417879)
(0.000514113 -0.000176178 0.000444712)
(0.000601616 -0.00019241 0.000452337)
(0.000584419 -9.67217e-05 0.00059402)
(0.000640686 -0.000176098 0.000594338)
(0.000642159 -0.000217074 0.000410816)
(0.000591454 -0.000206101 0.000362832)
(0.00065939 -0.000216219 0.000254817)
(0.000596214 -0.000162689 0.000348703)
(0.000689175 -0.000253774 0.000420664)
(0.000703351 -0.000298426 0.000291349)
(0.000684436 -0.000246137 0.000391822)
(0.000712193 -0.000265947 0.000595993)
(-4.41873e-05 -1.7099e-05 0.000158708)
(0.000685192 -0.000313618 0.000439696)
(0.000689482 -0.000234633 0.000585096)
(0.000812444 -0.000381665 0.000698952)
(0.000795522 -0.00041047 0.0004737)
(0.000743442 -0.000278975 0.000642859)
(-4.74749e-05 -1.2415e-05 0.000160016)
(0.000774244 -0.000366686 0.00047682)
(0.000813803 -0.000379538 0.000346433)
(-3.59778e-05 -3.43403e-05 0.000183102)
(0.000708168 -0.000276594 0.000449201)
(0.000640089 -0.000215584 0.000262921)
(-4.00266e-05 -2.70593e-05 0.000186347)
(0.000650364 -0.000192846 0.000222432)
(0.000634292 -0.000208002 0.000229126)
(-3.42677e-05 -3.41701e-05 0.000168415)
(0.000706598 -0.000204119 0.00017482)
(-3.7417e-05 -1.67277e-05 0.000169768)
(-4.07044e-05 -2.86397e-05 0.000183203)
(0.000728724 -0.000325427 0.000245944)
(0.000678836 -0.000244342 0.00022)
(-4.18583e-05 -2.722e-05 0.00018286)
(0.0006741 -0.00024997 0.00027518)
(0.000400212 -0.000238469 0.00022113)
(-4.53906e-05 -1.98035e-05 0.000178155)
(0.000463627 -0.000287337 0.000179377)
(0.000370394 -0.000231487 0.000176535)
(-4.44141e-05 -2.04514e-05 0.000182277)
(0.000269153 -0.000172722 0.000181961)
(0.000337649 -0.000223639 0.000183846)
(-4.83032e-05 -1.30746e-05 0.000190978)
(0.000243902 -0.00016569 0.000150529)
(0.000295963 -0.000169377 0.000228693)
(-3.71472e-05 -1.9631e-05 0.000164315)
(-3.36605e-05 -1.74153e-05 0.000151559)
(0.000341456 -0.000209275 0.000178788)
(-3.92849e-05 -2.38015e-05 0.000154021)
(-4.11393e-05 -1.82297e-05 0.000168295)
(0.000166581 -0.000100336 0.000149847)
(-3.95937e-05 -1.58561e-05 0.000152887)
(-4.35108e-05 -1.32404e-05 0.000166678)
(0.000226251 -0.000147505 0.000170917)
(-4.21084e-05 -1.26322e-05 0.000151054)
(0.000153375 -9.55483e-05 0.00013142)
(8.3386e-05 -3.84265e-05 0.000100136)
(0.000140914 -7.50439e-05 0.000150739)
(9.84337e-05 -3.82077e-05 0.000119808)
(6.66434e-05 -2.51418e-05 8.71854e-05)
(0.000110692 -4.68229e-05 0.000128449)
(7.798e-05 -4.47351e-05 8.29367e-05)
(0.000168653 -8.70621e-05 0.000170538)
(0.000207453 -0.00011606 0.000169293)
(0.000220539 -0.000185076 8.6624e-05)
(0.000356334 -0.000261068 0.000118152)
(0.000252309 -0.000171778 0.000141809)
(9.62147e-05 -7.2143e-05 6.82031e-05)
(0.00021118 -0.000166938 0.000104073)
(0.000152256 -0.000104082 0.00011599)
(0.000108723 -7.13226e-05 0.000102731)