/*--------------------------------*- C++ -*----------------------------------*\
  =========                 |
  \\      /  F ield         | OpenFOAM: The Open Source CFD Toolbox
   \\    /   O peration     | Website:  https://openfoam.org
    \\  /    A nd           | Version:  7
     \\/     M anipulation  |
\*---------------------------------------------------------------------------*/
FoamFile
{
    version     2.0;
    format      ascii;
    class       volScalarField;
    location    "5.75";
    object      p;
}
// * * * * * * * * * * * * * * * * * * * * * * * * * * * * * * * * * * * * * //

dimensions      [0 2 -2 0 0 0 0];

internalField   nonuniform List<scalar> 
382612
(
0.00209337
0.00187922
0.00201286
0.00201598
0.0017695
0.00223289
0.00213706
0.00201813
0.00184116
0.00171255
0.00188634
0.00187416
0.00184131
0.00186999
0.00196147
0.00209324
0.00188403
0.00202408
0.002038
0.00205979
0.0020809
0.0021084
0.00213587
0.0021579
0.00213749
0.0021124
0.0020886
0.0025248
0.00257183
0.00261132
0.00264407
0.00243319
0.00242573
0.00241587
0.00239867
0.00230678
0.00199341
0.00206731
0.00213366
0.00216741
0.00219574
0.00222101
0.00214481
0.00212745
0.00210468
0.00207647
0.00199151
0.00200683
0.00202862
0.00204669
0.00220039
0.00218187
0.00216007
0.00213673
0.00210407
0.00195746
0.00199972
0.00207129
0.00213813
0.00203658
0.00211312
0.00201169
0.00203283
0.00263558
0.00206972
0.0019013
0.00218797
0.00238688
0.00248886
0.0026306
0.00264969
0.00265266
0.00265428
0.00281824
0.00280799
0.00279432
0.00276813
0.00265695
0.00243961
0.00255059
0.0025938
0.00262263
0.00264291
0.00298537
0.00299225
0.00299967
0.00298021
0.00280997
0.00216683
0.00230521
0.0023396
0.00235648
0.00236768
0.0025437
0.00255783
0.00257484
0.00257219
0.00248186
0.00204208
0.00210221
0.00213169
0.00214781
0.00216507
0.00218462
0.00206117
0.00205274
0.00204316
0.00203904
0.00185163
0.00188209
0.0019053
0.00192239
0.00217121
0.00214929
0.00212522
0.00210142
0.00206605
0.00173705
0.00184001
0.00187377
0.00189091
0.0019017
0.00206779
0.00204557
0.00202195
0.00199621
0.00192336
0.00167125
0.00184635
0.00199413
0.00202032
0.00203098
0.00203512
0.00224715
0.00225537
0.00226683
0.00227745
0.00238319
0.00235905
0.00223766
0.00220789
0.00218886
0.0021752
0.00189857
0.00188769
0.00187471
0.00186563
0.00199742
0.00201408
0.00202767
0.00203693
0.00203633
0.00202992
0.0020205
0.0020134
0.00205378
0.0019693
0.00190194
0.00190247
0.00191033
0.00191611
0.00184431
0.00199904
0.00203291
0.00171904
0.00185844
0.00181613
0.00211005
0.0023233
0.00176035
0.00178681
0.00211476
0.00173991
0.00181081
0.00179028
0.00173039
0.00172871
0.00173792
0.00174351
0.00227084
0.00228201
0.0023001
0.0023215
0.00230907
0.0019321
0.00189717
0.00188857
0.00188927
0.00189159
0.00224089
0.00225678
0.00228209
0.00231224
0.00233723
0.00200296
0.00212801
0.00213931
0.00213859
0.0021339
0.002131
0.00192973
0.00193023
0.00193308
0.00194537
0.00161827
0.00162302
0.00163122
0.00163463
0.00199029
0.00198971
0.00198837
0.00198959
0.0020261
0.00163951
0.0016299
0.00202403
0.00192289
0.00158669
0.00182016
0.00198009
0.0016797
0.00196851
0.0019397
0.00166113
0.00154918
0.00187953
0.00191206
0.00176652
0.00157397
0.00180499
0.00194814
0.00200595
0.00200388
0.0019782
0.00184574
0.0017009
0.00202177
0.00193584
0.00200001
0.00204642
0.00197174
0.00200532
0.00212786
0.00211843
0.00191913
0.0019482
0.00198835
0.00199994
0.00201475
0.00203059
0.00219778
0.00219456
0.002185
0.00214328
0.00242159
0.00239768
0.0023791
0.00236187
0.00280617
0.00279537
0.00278502
0.00275931
0.00261617
0.00251842
0.00244977
0.00246181
0.00247556
0.00247981
0.00248631
0.00214093
0.00214259
0.00213704
0.00212242
0.00213158
0.00261401
0.00257971
0.00258416
0.0025944
0.00260321
0.00243542
0.00242114
0.00239834
0.00238025
0.00240214
0.00263956
0.0025965
0.00259652
0.00261098
0.0026229
0.00283938
0.00283943
0.00283859
0.00282781
0.00275031
0.00266086
0.00279319
0.00282524
0.00283928
0.00284751
0.00328406
0.00328994
0.0032973
0.0032761
0.00308484
0.00229133
0.00232549
0.00234247
0.00236574
0.0023849
0.00245148
0.00244281
0.00243106
0.00240742
0.00229717
0.00209581
0.00218253
0.0022182
0.00224415
0.00226154
0.00261038
0.00262539
0.00264933
0.00265765
0.00255674
0.00184726
0.00185433
0.0018624
0.0018811
0.00189869
0.00200665
0.00201615
0.00203026
0.00204528
0.00205544
0.00196233
0.00194583
0.00192501
0.00191179
0.00189207
0.00245511
0.00247303
0.00245399
0.0024271
0.00240769
0.00184863
0.00183822
0.00182565
0.001825
0.00185695
0.00237458
0.00232914
0.00229771
0.00227124
0.00225418
0.00171887
0.00171469
0.00171023
0.00172402
0.00181904
0.00199644
0.00193407
0.00192619
0.0019321
0.00193835
0.00219587
0.00221026
0.00223173
0.00226011
0.00231319
0.00190715
0.00181385
0.0018018
0.00180835
0.00181443
0.00217253
0.00218428
0.00220136
0.00222043
0.00222998
0.00199388
0.00204395
0.00204678
0.00204774
0.00204445
0.00204128
0.00194569
0.00194532
0.00194551
0.00195153
0.00177636
0.00177409
0.00177589
0.00177667
0.0019767
0.00197989
0.00198257
0.00198468
0.00199388
0.00179488
0.00204521
0.00198809
0.0019756
0.00197255
0.00197034
0.00191071
0.00207603
0.00217765
0.00212253
0.0021048
0.0020954
0.00208902
0.0019599
0.00196042
0.00196051
0.00195991
0.00203183
0.00202885
0.00202439
0.00202088
0.00204401
0.00204594
0.0020487
0.00205072
0.00201191
0.00201375
0.00201703
0.00201902
0.00218247
0.00218758
0.00219335
0.00219927
0.00222689
0.00202676
0.00205524
0.00208942
0.00213556
0.00194802
0.00203677
0.00200409
0.00185972
0.00175116
0.00196595
0.00196889
0.00177506
0.0021427
0.00211309
0.00207869
0.00210019
0.00196684
0.0020357
0.0020561
0.00213295
0.00212256
0.00222859
0.00223364
0.00219266
0.00218472
0.00218499
0.00218643
0.0022491
0.00224638
0.00224263
0.00224
0.00224781
0.0023234
0.00232313
0.00232121
0.00232123
0.00232281
0.00225924
0.00226102
0.00226323
0.00226504
0.00227467
0.0021066
0.00206369
0.00206646
0.00206655
0.00206425
0.00206246
0.00210941
0.00210471
0.00209855
0.00209509
0.00203632
0.0020396
0.0020433
0.00204584
0.00203637
0.00203829
0.00204075
0.00204186
0.00204323
0.00203583
0.00222403
0.00220206
0.00220015
0.00219817
0.00219558
0.00221292
0.00228424
0.00223704
0.00221685
0.00222034
0.00222752
0.0022327
0.00242833
0.00242841
0.00242688
0.0024182
0.00239185
0.00242976
0.0024474
0.00245325
0.00245686
0.00245959
0.00236569
0.00236165
0.00235648
0.00235248
0.0023597
0.00229666
0.00231203
0.00232047
0.00232355
0.0023252
0.00214442
0.0021368
0.00212751
0.00212299
0.00209266
0.00209408
0.00209236
0.00209093
0.00213821
0.00213782
0.0021372
0.00213456
0.00218563
0.00218685
0.0021914
0.00219509
0.00242031
0.00241031
0.00239686
0.00237978
0.00235531
0.00219278
0.0021233
0.00211573
0.00222377
0.00218004
0.00211518
0.00207444
0.00211105
0.00196458
0.0020209
0.00207452
0.00208883
0.00217784
0.00209578
0.00209079
0.00218181
0.00212983
0.00208361
0.00225648
0.0023025
0.00239391
0.00241554
0.00237277
0.00236954
0.00237462
0.00238194
0.00238717
0.00253326
0.0025272
0.0025178
0.00250417
0.00248058
0.00251385
0.00253969
0.00254991
0.00255592
0.00255952
0.00247544
0.00247222
0.00246657
0.00245697
0.00244771
0.00249848
0.00251424
0.00252259
0.00252657
0.00252896
0.00246003
0.00244903
0.00243454
0.00241748
0.0023848
0.00224604
0.00226886
0.00226941
0.00226738
0.00226583
0.00234812
0.00233786
0.00232554
0.00230881
0.00225926
0.00217104
0.00211313
0.00212413
0.00212963
0.00213055
0.00213055
0.00215887
0.00215413
0.00214871
0.0021502
0.00218825
0.00219336
0.00219995
0.00220499
0.00213262
0.0021321
0.00213177
0.00213048
0.00212241
0.00218423
0.00217701
0.00210897
0.00211882
0.0021726
0.00212042
0.0020818
0.00210484
0.00216387
0.00226988
0.00214877
0.00208875
0.00214889
0.00223959
0.00211532
0.00228322
0.00258543
0.00225295
0.00212264
0.00242179
0.00253176
0.00257617
0.00256571
0.00252695
0.00249188
0.00240826
0.00243305
0.0024458
0.00245177
0.0024551
0.00253629
0.00253246
0.00252792
0.00252137
0.00249897
0.00257132
0.00260458
0.00261497
0.00262106
0.00262556
0.00258387
0.00257576
0.00256485
0.00255187
0.00253415
0.00257098
0.00260704
0.00262051
0.0026279
0.00263289
0.0026132
0.00260884
0.00260177
0.00258829
0.00254996
0.00244896
0.00245082
0.00245801
0.00246718
0.00247452
0.00252109
0.00251802
0.0025137
0.00250426
0.00247475
0.00235095
0.00235828
0.0023658
0.00237234
0.00237669
0.002231
0.00222639
0.00222054
0.00221406
0.00220161
0.00212708
0.0020996
0.00211043
0.00211463
0.00211497
0.00211341
0.00214091
0.00213669
0.00213103
0.00212673
0.00212115
0.00212376
0.00212801
0.00213271
0.00208826
0.00208782
0.00208505
0.00207878
0.0020729
0.00212335
0.00222171
0.00222238
0.0022283
0.00223495
0.0022405
0.00218752
0.00218232
0.00217595
0.00217061
0.00216744
0.0020806
0.00205727
0.00207045
0.00207471
0.00207681
0.00207934
0.00211017
0.00210354
0.00209565
0.0020894
0.00210291
0.00210481
0.0021072
0.0021092
0.00209388
0.00209092
0.00208969
0.00208773
0.00207564
0.00209783
0.00209827
0.00205936
0.00207491
0.00208952
0.00205521
0.00203451
0.00210452
0.00215301
0.00218895
0.00210304
0.00208887
0.00209669
0.00212402
0.00208243
0.00200645
0.00193878
0.002211
0.00211556
0.00219418
0.00229744
0.00238494
0.00220549
0.00217326
0.00231494
0.00203604
0.00203224
0.00209801
0.00219643
0.00212747
0.00208374
0.00208821
0.00217625
0.00221851
0.00211721
0.0020716
0.00203492
0.00229306
0.00227205
0.00232846
0.00232695
0.00234823
0.00232511
0.00231939
0.00231883
0.00231952
0.00231892
0.00231836
0.00231923
0.0023238
0.00232688
0.00241212
0.00242387
0.00242508
0.00242649
0.00242808
0.0023441
0.0023427
0.00233933
0.00233075
0.00231355
0.0022748
0.00226303
0.00225941
0.0022601
0.00226211
0.00237328
0.00236979
0.00236602
0.00236163
0.00234721
0.00241536
0.00244093
0.00245057
0.00245768
0.002463
0.00255137
0.0025471
0.00253947
0.00252315
0.00248493
0.00246228
0.00249051
0.00250589
0.00251464
0.00251996
0.00259191
0.00258551
0.00257781
0.00256881
0.00254518
0.0025342
0.00255681
0.00256535
0.00257065
0.00257434
0.00249265
0.00248926
0.00248553
0.00248064
0.00246263
0.00240275
0.0024032
0.00240436
0.00240728
0.00240974
0.0023119
0.00230577
0.00229824
0.00229408
0.00230133
0.00231119
0.00233317
0.00233925
0.00234066
0.00234171
0.00221086
0.00221276
0.0022138
0.00221172
0.00219652
0.00219796
0.00221691
0.00221869
0.00221575
0.00221241
0.00206719
0.00206233
0.00205709
0.00205606
0.00207565
0.0020816
0.00208517
0.00208834
0.00207329
0.00206952
0.00206489
0.00205791
0.00204852
0.00206129
0.00205972
0.00206429
0.00206961
0.00207363
0.00210514
0.00210602
0.00210647
0.00210679
0.00210717
0.00208766
0.00208733
0.00208762
0.00208816
0.00208846
0.00203691
0.0020326
0.00202708
0.0020234
0.00202843
0.00203296
0.00203681
0.00204068
0.00209961
0.0020959
0.00209387
0.00209175
0.00207487
0.00207236
0.00207472
0.00207781
0.00212129
0.00212541
0.00213087
0.00213619
0.00214032
0.00208736
0.0020868
0.00206834
0.0020547
0.00192176
0.00198156
0.00209962
0.00207708
0.00204515
0.0020556
0.00209647
0.00213023
0.00185698
0.00198211
0.00198182
0.00183271
0.00191616
0.00196955
0.00203985
0.00202891
0.00212538
0.00207704
0.00211111
0.00221199
0.00226612
0.00212182
0.00210038
0.00215383
0.0022535
0.00216654
0.00206365
0.00210925
0.00208361
0.00239178
0.00265219
0.00281182
0.00285382
0.00277781
0.00260093
0.00237202
0.00212139
0.00189108
0.00175019
0.00178933
0.00180111
0.00179986
0.00179628
0.00193845
0.00193226
0.00192566
0.00192247
0.00192042
0.00212567
0.0021891
0.00220577
0.0022064
0.00220433
0.00229413
0.00228675
0.00227812
0.00227117
0.00225362
0.00222743
0.00227367
0.00228358
0.00228899
0.00229341
0.00233395
0.00233172
0.00232592
0.00230907
0.00224628
0.0024099
0.00242669
0.00243418
0.00244368
0.00245203
0.00241175
0.00240955
0.00240413
0.00238823
0.00233313
0.00225978
0.002282
0.00229112
0.00229605
0.0022984
0.0024132
0.00240781
0.00240226
0.0023993
0.00239458
0.0023781
0.00238224
0.00239035
0.00239791
0.00240324
0.00240259
0.00240089
0.00239683
0.00238752
0.00237164
0.00231859
0.00234004
0.00234774
0.0023497
0.00234989
0.00223488
0.00223158
0.0022276
0.00222596
0.00222921
0.00227789
0.00227199
0.00226791
0.00226564
0.00226472
0.00216385
0.0021581
0.00215213
0.00215321
0.00218058
0.00215642
0.00214709
0.00214942
0.00215331
0.00215595
0.00216551
0.00216974
0.0021764
0.00218414
0.00218585
0.00208761
0.00207517
0.00207698
0.00207968
0.0020813
0.0020291
0.00202713
0.00202409
0.00202295
0.00203802
0.00203276
0.0020273
0.00202783
0.00202849
0.00202802
0.00205701
0.00205355
0.0020489
0.00204558
0.00204959
0.00199115
0.00200706
0.00201363
0.00202261
0.00203134
0.00203875
0.00202435
0.00201747
0.00200744
0.00199674
0.00202035
0.00202128
0.00202376
0.00202572
0.00204861
0.0020467
0.00204479
0.00204091
0.00203328
0.00202992
0.00207035
0.0020826
0.0020778
0.00203755
0.00195014
0.00203298
0.00199702
0.0018936
0.00203971
0.00204679
0.00189478
0.0017074
0.00179274
0.00195829
0.00187603
0.00168765
0.00183159
0.00189279
0.0019386
0.00192899
0.00197549
0.00198582
0.00200674
0.001962
0.00167497
0.00186729
0.00186789
0.00167082
0.00163768
0.00174003
0.00185613
0.00206767
0.00227033
0.00241234
0.00246012
0.0023871
0.00220504
0.00195402
0.00168004
0.00143436
0.00132771
0.00138171
0.00138978
0.00138517
0.00137962
0.00148517
0.00147863
0.0014721
0.00146845
0.00146035
0.0017733
0.00183208
0.00184445
0.00184179
0.00183666
0.00196027
0.00195194
0.00194263
0.00193677
0.00192904
0.0021145
0.00213332
0.00214143
0.00214831
0.00215336
0.00206933
0.00206242
0.00205516
0.00205273
0.00204727
0.00220045
0.00219475
0.00219589
0.00220143
0.00220666
0.00212086
0.00211725
0.00211551
0.00212045
0.00212273
0.00221608
0.00219111
0.00218189
0.0021822
0.0021844
0.0022025
0.00220045
0.00219716
0.00219476
0.00220314
0.00231972
0.00232188
0.00231867
0.00231842
0.00232016
0.0022727
0.00227158
0.00227137
0.00227715
0.00230157
0.00222445
0.00222537
0.00221913
0.00221655
0.00221594
0.00218944
0.00219049
0.00219364
0.00220243
0.00221803
0.00214213
0.00213018
0.00212953
0.00213235
0.00213487
0.00221458
0.0022145
0.00221382
0.00221057
0.00219906
0.00223386
0.00220725
0.00226334
0.00226507
0.00219551
0.0022018
0.00220668
0.00220865
0.00220864
0.00211556
0.00211338
0.00211139
0.00211469
0.00213692
0.00209518
0.00209244
0.00209535
0.00209588
0.00209543
0.00207316
0.0020721
0.00207014
0.00206767
0.00207545
0.00205677
0.00206035
0.00206146
0.0020613
0.00206095
0.00199833
0.00199837
0.00199878
0.00200315
0.00202644
0.00216767
0.00216051
0.0021467
0.00213669
0.00213116
0.0020926
0.00209581
0.00210238
0.0021182
0.00216828
0.00206773
0.00207541
0.00206692
0.00206415
0.00206266
0.00206332
0.00202008
0.00202155
0.00202486
0.0020361
0.00196377
0.0019734
0.0019786
0.00198177
0.00209202
0.00208954
0.0020865
0.00207797
0.00205441
0.00194455
0.00200951
0.00212134
0.00202439
0.00194328
0.0019418
0.00210818
0.00196934
0.00195832
0.00198595
0.00199553
0.00199689
0.00199597
0.00190428
0.00190385
0.00190234
0.00190177
0.00191317
0.00195911
0.00198962
0.00199213
0.00198973
0.0019869
0.00202035
0.00202742
0.00203385
0.00203005
0.00198094
0.00196706
0.0020062
0.00202553
0.00203114
0.00203494
0.00204001
0.00200834
0.00201117
0.00201237
0.00200579
0.00194927
0.00195583
0.00196447
0.00197031
0.00205918
0.00205366
0.00204684
0.00203661
0.00202266
0.00196717
0.002066
0.00206207
0.00203374
0.00196785
0.00179011
0.00195091
0.00191383
0.00169034
0.00165322
0.00186154
0.001797
0.00157227
0.00180458
0.00187966
0.00195022
0.00199399
0.00184238
0.00185883
0.00190778
0.00188534
0.00185633
0.00193592
0.00199829
0.00193976
0.00205529
0.00204693
0.00200339
0.00196598
0.00186696
0.00199383
0.00194772
0.00179428
0.00208129
0.00208077
0.00205602
0.00208952
0.00201723
0.00202248
0.00199365
0.00201864
0.00166331
0.00184167
0.00188076
0.00163855
0.00169319
0.00188581
0.00194195
0.00194474
0.00182573
0.00192507
0.00186793
0.00172401
0.00172865
0.00187622
0.00191668
0.00169019
0.00172213
0.00192275
0.0019274
0.00169373
0.0017709
0.00194867
0.00197743
0.00183143
0.00172245
0.00195817
0.00193158
0.00166129
0.00188111
0.00187746
0.00184335
0.00180938
0.00172993
0.00172
0.00172289
0.00172425
0.00194164
0.0019417
0.00194211
0.00195066
0.00200503
0.00224838
0.0021868
0.00216529
0.00215398
0.00214795
0.00193324
0.0019286
0.00192395
0.00193366
0.0020134
0.00221146
0.00218166
0.00216541
0.00215713
0.00215314
0.00209801
0.00209341
0.00208892
0.00209423
0.00215078
0.00206426
0.00203643
0.00191469
0.00188222
0.00182891
0.00182089
0.00182226
0.00182283
0.00201827
0.00202008
0.00202094
0.00202127
0.00204359
0.00223697
0.00219783
0.00218228
0.00217729
0.00217582
0.00207951
0.00207559
0.00207107
0.00207481
0.00212109
0.00227441
0.00226588
0.00225715
0.00225282
0.00225074
0.00215804
0.00215737
0.00215678
0.00216177
0.0022017
0.00218331
0.00216257
0.00207954
0.00204016
0.00197187
0.00193211
0.00192817
0.00193005
0.00193165
0.0021225
0.00212385
0.00212842
0.00214131
0.00215732
0.00222898
0.00221725
0.00220805
0.00220558
0.00220583
0.00221281
0.00221097
0.00220811
0.00220587
0.00221499
0.00224161
0.00223992
0.00224256
0.00224289
0.00224241
0.00227013
0.00238273
0.00235002
0.00224459
0.00208475
0.00198581
0.00199671
0.00200286
0.00200247
0.0020003
0.0021555
0.00215223
0.00215208
0.0021601
0.00217137
0.00220579
0.00221256
0.00221437
0.0022193
0.00222471
0.00210014
0.0021036
0.00210424
0.00209262
0.00205554
0.00189087
0.00186663
0.00186222
0.00186617
0.00187068
0.00171098
0.00171543
0.00171854
0.00171174
0.00169426
0.001487
0.00146967
0.00146067
0.0014594
0.00146042
0.00147364
0.00147101
0.00146891
0.00147187
0.00148403
0.00122685
0.00121786
0.00121734
0.00122164
0.00122631
0.00120082
0.00120067
0.00120263
0.00120743
0.00121043
0.00105313
0.00103692
0.00103781
0.0010402
0.0010424
0.000978264
0.000972031
0.000967765
0.000970173
0.000993838
0.00126658
0.00129162
0.00129598
0.00129057
0.00128368
0.00140188
0.00139529
0.00138855
0.00138865
0.00140541
0.00163346
0.001631
0.00163422
0.00164024
0.00164615
0.0018662
0.00187063
0.001874
0.00186634
0.00182226
0.00193095
0.00196658
0.00197545
0.00197623
0.00197626
0.00187065
0.00187318
0.00187407
0.00186916
0.00186894
0.0019526
0.0019376
0.00193984
0.00194338
0.00194647
0.0020556
0.00205647
0.00205673
0.00205257
0.00204102
0.00200381
0.00198513
0.00198306
0.00198336
0.00198283
0.00218072
0.00218132
0.002186
0.00219486
0.00220389
0.00198406
0.00196398
0.00196412
0.00196687
0.00196829
0.00201251
0.00201331
0.00201433
0.00201368
0.00200952
0.0019914
0.00196558
0.00196085
0.0019604
0.00196048
0.00209769
0.00210205
0.00211103
0.00212702
0.00214051
0.00214614
0.00211198
0.00209932
0.0020944
0.00209233
0.00190934
0.00190701
0.00190339
0.00190068
0.00191383
0.00192079
0.00190664
0.00190749
0.00190924
0.00191002
0.00212557
0.0021348
0.00215116
0.00217509
0.00218438
0.0022303
0.00223949
0.00222002
0.00220405
0.0021946
0.00219848
0.00220122
0.00220813
0.00222154
0.00222659
0.00229584
0.00227907
0.00227751
0.00227664
0.00227799
0.00207074
0.00206703
0.0020619
0.00205896
0.00206413
0.00193286
0.00194266
0.0019805
0.00199601
0.00200993
0.00202126
0.00205722
0.0020553
0.00205103
0.00203009
0.00214157
0.00214049
0.00214016
0.00214099
0.00211882
0.00211183
0.002107
0.00210619
0.00212328
0.00213363
0.00205178
0.00209462
0.00198947
0.00189869
0.00214346
0.0020763
0.00201473
0.00194549
0.00179988
0.00192034
0.00190303
0.0018063
0.00185172
0.00184686
0.00193564
0.00196026
0.00191136
0.00195327
0.00197428
0.00191175
0.00181818
0.00193807
0.00191929
0.00178494
0.00181847
0.00190402
0.00186134
0.0018103
0.00190694
0.00163929
0.00146831
0.0013248
0.00125382
0.00124331
0.00125416
0.00125078
0.00122131
0.00117233
0.00109376
0.000989195
0.000870388
0.00075785
0.000645871
0.000724962
0.000715968
0.00071606
0.000718874
0.000721179
0.000890905
0.000902477
0.000915083
0.00092099
0.000907838
0.000952793
0.000955638
0.000953497
0.000948619
0.000944003
0.000915745
0.000926272
0.000936852
0.00094119
0.000942678
0.00117098
0.00112782
0.00111925
0.0011227
0.00112836
0.0013021
0.00131094
0.00131882
0.00131691
0.00130816
0.00157074
0.00155149
0.00154323
0.00154482
0.00154745
0.00175741
0.00175441
0.00175442
0.00176442
0.0017958
0.00164971
0.00165864
0.0016595
0.00165758
0.00165497
0.00159893
0.00160342
0.00160627
0.00160766
0.00162879
0.00193731
0.00191483
0.00189881
0.0018948
0.0018952
0.00196928
0.00196932
0.00197301
0.00198949
0.0020434
0.00178147
0.0017867
0.00178745
0.00178648
0.00178531
0.00178299
0.00178491
0.00178749
0.00179244
0.00181459
0.00204138
0.0020362
0.00201963
0.00201021
0.00200626
0.00198947
0.00199157
0.00199756
0.00201425
0.00206163
0.0017945
0.00178686
0.00178788
0.00178971
0.00179003
0.00185068
0.00185149
0.00185233
0.00185209
0.00185139
0.00190711
0.00188154
0.00187488
0.00187213
0.00187048
0.00208663
0.00209624
0.00211219
0.00213192
0.00212958
0.00181897
0.00182169
0.00182764
0.0018305
0.00183165
0.00186115
0.00185836
0.0018515
0.0018376
0.00182272
0.00182801
0.00184321
0.00186009
0.00187139
0.00187745
0.00195952
0.00195291
0.00194153
0.00192134
0.00188947
0.00179022
0.00183254
0.00185486
0.00186605
0.00187165
0.00211579
0.00211075
0.00210257
0.0020815
0.00201166
0.00218249
0.0022115
0.00220958
0.0022061
0.00220503
0.00208951
0.00209394
0.0020978
0.00209235
0.00202263
0.00202938
0.00204024
0.00205048
0.00210587
0.00209173
0.00207597
0.00206226
0.00206707
0.00208069
0.00208325
0.00208315
0.00231285
0.00230997
0.00230714
0.00229304
0.00219714
0.00199022
0.00205635
0.00205764
0.00190821
0.00187668
0.00205987
0.0020503
0.00187281
0.0019349
0.00209953
0.00212946
0.00214178
0.00214726
0.00215302
0.00202407
0.0020137
0.00199647
0.00197675
0.00224823
0.00226948
0.00226879
0.00226834
0.00214825
0.00214343
0.00213566
0.00212086
0.00210065
0.00227166
0.00225936
0.00225803
0.00225071
0.00224648
0.00226391
0.00226001
0.00225542
0.00224615
0.00231184
0.00202301
0.00205004
0.00205023
0.00205421
0.00206112
0.00206756
0.00214364
0.0021458
0.0021468
0.0021325
0.0020459
0.0020711
0.00208017
0.00208674
0.00203986
0.00203246
0.00202411
0.00201459
0.00198471
0.00188568
0.00182851
0.00204779
0.00199662
0.00200227
0.00199656
0.00193212
0.00191824
0.00190433
0.00207385
0.00199478
0.00190447
0.00192322
0.00197197
0.00189803
0.00196142
0.00193404
0.00190113
0.00164253
0.00130399
0.000964823
0.000724522
0.000631574
0.000679839
0.000793775
0.000880598
0.000881791
0.000799229
0.000674859
0.000592836
0.000516478
0.000476163
0.00041156
0.000441836
0.000427133
0.000419032
0.000411121
0.000404623
0.00047759
0.00047834
0.000481881
0.00049296
0.000529438
0.000583138
0.000571689
0.000564606
0.000554735
0.000544951
0.000693466
0.000695242
0.000700494
0.000716232
0.000747415
0.000961327
0.000916389
0.000896018
0.000887871
0.000884158
0.00101084
0.00101899
0.00102569
0.00102762
0.00103938
0.00137429
0.00133302
0.00131429
0.00131058
0.00131227
0.00151608
0.00151802
0.00152418
0.00154542
0.00161177
0.00137863
0.00138107
0.00137988
0.00137787
0.00137665
0.00138756
0.00139224
0.00139605
0.00140029
0.00142624
0.00178319
0.00176099
0.00173926
0.00172774
0.00172349
0.00179294
0.00179522
0.00180178
0.00182156
0.00188314
0.00154016
0.00154847
0.00154973
0.00154934
0.0015482
0.00162558
0.00162842
0.00163199
0.00163782
0.00165791
0.00191235
0.00190845
0.00188872
0.00187448
0.00186749
0.00188836
0.0018951
0.00190879
0.00193165
0.00194716
0.00202735
0.00199401
0.00197385
0.00196287
0.00195764
0.00166653
0.00166516
0.00165932
0.00164722
0.00164078
0.00171016
0.00171605
0.00172579
0.00173194
0.00173428
0.00184207
0.00183948
0.00183603
0.00183224
0.00182137
0.00191715
0.00194075
0.00194524
0.00194623
0.00194664
0.00205549
0.00205506
0.00205386
0.00204811
0.00201841
0.00199187
0.00201669
0.00202202
0.00202357
0.00202356
0.00204814
0.00204016
0.0020265
0.00200306
0.00196135
0.00202635
0.00202966
0.00203909
0.00204696
0.00205173
0.00219643
0.0022019
0.00220999
0.00221199
0.00216274
0.00206872
0.00215218
0.00216016
0.00215753
0.00215507
0.00207594
0.0020725
0.00206733
0.00205918
0.00201392
0.00212842
0.00212891
0.0021249
0.00212275
0.00212471
0.0020961
0.00195049
0.0020007
0.00195572
0.00202654
0.00218719
0.00180969
0.00197872
0.00222066
0.00184078
0.0021619
0.00289457
0.00201568
0.00217073
0.00222933
0.00253429
0.00200225
0.00165296
0.00117486
0.000775527
0.000506324
0.000440119
0.000522037
0.0006534
0.000734341
0.00070715
0.000603507
0.000489599
0.000402663
0.000371657
0.000334139
0.000431735
0.000435609
0.000431909
0.000427988
0.000425525
0.000339912
0.000346544
0.000351361
0.000352879
0.000360094
0.000592781
0.000581496
0.000563625
0.000549922
0.000541647
0.000776602
0.000785871
0.000798374
0.000811715
0.000833658
0.000785257
0.00076495
0.00076159
0.000756705
0.000750796
0.00113313
0.00114296
0.00116126
0.00119051
0.00122473
0.00140217
0.00136073
0.00134327
0.00133142
0.00132368
0.00127619
0.00128016
0.0012842
0.00128927
0.00131364
0.0016898
0.00166377
0.00163726
0.00162122
0.00161335
0.00169434
0.00169979
0.00170919
0.0017242
0.00175055
0.0013809
0.00136674
0.00136995
0.00137464
0.00137738
0.0015033
0.00150328
0.00150322
0.00150395
0.00151593
0.0015944
0.001597
0.00159554
0.00159249
0.00158995
0.00168173
0.00168978
0.00169856
0.00169832
0.00166542
0.00171849
0.00175039
0.00174685
0.00173545
0.00172446
0.0019386
0.00194621
0.00195773
0.00196183
0.00191373
0.00191913
0.00194417
0.00194698
0.00194784
0.00194787
0.00196037
0.0019591
0.00195496
0.00194522
0.00190372
0.00203376
0.00207526
0.0020866
0.00209224
0.00209574
0.00217044
0.00217181
0.00217308
0.0021691
0.00213027
0.00218163
0.00219803
0.00220239
0.00220725
0.00221122
0.00230158
0.00230795
0.00231725
0.00231482
0.00223573
0.00204546
0.00200909
0.00201829
0.00203807
0.00205233
0.00233195
0.00232837
0.00232338
0.00231597
0.00227889
0.00223136
0.00221283
0.00221184
0.00221576
0.00221857
0.00221086
0.00221714
0.00222475
0.00221942
0.00215157
0.0020009
0.00210829
0.00211645
0.00210886
0.00210165
0.0022274
0.00223425
0.00224616
0.00224233
0.00211811
0.00188209
0.00190557
0.00191688
0.00192442
0.0019288
0.00207576
0.00207999
0.00208284
0.00207417
0.00203631
0.00203344
0.00193235
0.00191722
0.00203725
0.00205194
0.0019113
0.0019664
0.00197563
0.00197864
0.0019794
0.00205524
0.00205733
0.00205973
0.00205927
0.00200756
0.00195902
0.00198076
0.00195115
0.00192184
0.00190115
0.0019344
0.00195829
0.0019611
0.00188892
0.00194811
0.00199355
0.00197491
0.00197817
0.0021958
0.00207038
0.00201828
0.0020698
0.00201806
0.00199521
0.00195193
0.00186579
0.00189132
0.0019664
0.00201235
0.00201014
0.00207663
0.00204726
0.00201841
0.002021
0.00199903
0.00199315
0.00205143
0.00211601
0.00205977
0.00202525
0.00198037
0.00193794
0.00192874
0.0019894
0.0020157
0.00200863
0.0019696
0.00199053
0.00199175
0.00194606
0.00193651
0.00197685
0.0019485
0.00191809
0.00188158
0.00193915
0.00193343
0.00184689
0.00185827
0.00196171
0.00190185
0.00183885
0.00190253
0.001927
0.00196648
0.00199727
0.00198226
0.00195391
0.00193146
0.00196119
0.00199126
0.00192909
0.00195161
0.00199478
0.00195534
0.00195665
0.00194502
0.00196424
0.00209031
0.00197
0.00197981
0.00208148
0.00190098
0.00187842
0.00170621
0.00148229
0.00119301
0.000907288
0.000796387
0.000838282
0.00115037
0.0012717
0.00156141
0.00170684
0.00173171
0.00174417
0.00175338
0.00204383
0.00205925
0.00207636
0.00208396
0.00204937
0.00148447
0.00154175
0.00155093
0.00155107
0.00154739
0.002174
0.00219463
0.00222078
0.00223341
0.00220851
0.00160306
0.00156327
0.00155946
0.00156219
0.00156249
0.00221605
0.00223708
0.00226806
0.00229935
0.00228146
0.00227224
0.00234247
0.00234612
0.0023343
0.0023228
0.00169517
0.00169727
0.00169512
0.00168809
0.00166514
0.00159455
0.00163687
0.00163511
0.00163196
0.00162923
0.00202287
0.00203254
0.00204566
0.00206492
0.00213914
0.00165577
0.00160599
0.00160206
0.00160415
0.00160306
0.00172247
0.00172439
0.00172759
0.00173699
0.00177687
0.00216586
0.00207861
0.00205027
0.00203727
0.0020294
0.00195158
0.00196046
0.00197666
0.0020056
0.0020375
0.00210442
0.00202106
0.00199865
0.00199088
0.00198724
0.0019536
0.00195827
0.00196968
0.00199395
0.00203818
0.00199212
0.00194279
0.00193626
0.00193871
0.00194165
0.00170729
0.00166489
0.00166019
0.00166056
0.00165948
0.00173113
0.00173143
0.00173034
0.00173228
0.00175935
0.00203748
0.00200531
0.00198414
0.00197424
0.0019709
0.00193955
0.00193741
0.00193834
0.00195589
0.00203766
0.00202816
0.00202422
0.00202706
0.00202776
0.00202716
0.0020768
0.00207682
0.00207641
0.00207448
0.0020737
0.00214259
0.00205665
0.0019076
0.0016993
0.0016061
0.00159705
0.00159899
0.00159746
0.00159417
0.00183096
0.00183267
0.0018379
0.00185676
0.0018928
0.00190199
0.00187879
0.00186747
0.00186574
0.00186663
0.00166817
0.00167298
0.00167753
0.00167471
0.00166627
0.00151369
0.00149136
0.00147715
0.00147168
0.00146966
0.00124057
0.00124138
0.00124655
0.00126335
0.00129214
0.00124806
0.00122721
0.00121848
0.00121701
0.00121752
0.00106126
0.00106949
0.00107767
0.00107977
0.00107678
0.00113469
0.00116192
0.00116152
0.00115043
0.00113899
0.00081859
0.000816562
0.000816297
0.000822909
0.000845072
0.000881556
0.000863235
0.000863001
0.000866925
0.000869995
0.000817854
0.000819229
0.000821869
0.000828506
0.000849251
0.000859306
0.000869585
0.000863035
0.000851339
0.000841585
0.000593275
0.000591524
0.000590115
0.000592721
0.000608805
0.000606634
0.000571532
0.000565909
0.000566549
0.00056773
0.000562088
0.000564995
0.000568808
0.000574547
0.000592925
0.000605163
0.000600455
0.000592371
0.000582127
0.000573399
0.000605013
0.000604656
0.000606093
0.000615028
0.000648365
0.000787646
0.000756427
0.000747074
0.000746145
0.000746738
0.000657719
0.00057474
0.000604194
0.000583335
0.000575137
0.000569503
0.000565289
0.000485133
0.000478083
0.000516435
0.000519042
0.000515185
0.000508477
0.000502563
0.000487001
0.000485057
0.000484595
0.000490336
0.000520829
0.000466332
0.000458545
0.000454949
0.000450443
0.000446387
0.000392844
0.000392927
0.000393695
0.000397049
0.000410881
0.00035024
0.000337383
0.000334014
0.000335338
0.000337019
0.000378001
0.000380245
0.000384514
0.000395284
0.000422132
0.00044983
0.000438752
0.000433849
0.000426281
0.000418853
0.000568075
0.000571223
0.000579235
0.000597007
0.000627286
0.000843571
0.000793957
0.000774174
0.000764155
0.000757938
0.000813974
0.000821914