/*--------------------------------*- C++ -*----------------------------------*\
  =========                 |
  \\      /  F ield         | OpenFOAM: The Open Source CFD Toolbox
   \\    /   O peration     | Website:  https://openfoam.org
    \\  /    A nd           | Version:  7
     \\/     M anipulation  |
\*---------------------------------------------------------------------------*/
FoamFile
{
    version     2.0;
    format      ascii;
    class       volVectorField;
    location    "5.75";
    object      wallShearStress;
}
// * * * * * * * * * * * * * * * * * * * * * * * * * * * * * * * * * * * * * //

dimensions      [0 2 -2 0 0 0 0];

internalField   uniform (0 0 0);

boundaryField
{
    outlet1
    {
        type            calculated;
        value           uniform (0 0 0);
    }
    Wall
    {
        type            calculated;
        value           nonuniform List<vector> 
40276
(
(0.000409735 4.98942e-05 0.000170983)
(-0.000186878 -8.44061e-06 0.000415675)
(-0.000190577 -7.70229e-06 0.00040758)
(0.00010808 -3.70828e-05 0.000156726)
(8.96741e-05 -4.05982e-06 0.000150915)
(8.1793e-05 4.46269e-05 0.000156232)
(9.49572e-05 4.91408e-05 0.000167174)
(0.000138236 3.64121e-05 0.000192056)
(0.000108328 2.32795e-05 0.000176231)
(0.000102814 1.43232e-05 0.000174435)
(0.000398158 3.99448e-05 0.000423102)
(0.000481374 1.69531e-05 0.000459611)
(0.000584319 4.14068e-05 0.000938997)
(0.000562602 4.1118e-05 0.000870262)
(0.000469615 -1.3671e-05 0.000325679)
(0.000420503 3.55981e-06 0.000355544)
(0.000385725 2.34477e-05 6.88731e-05)
(0.000346805 2.50632e-05 3.20739e-05)
(-9.60782e-05 -1.60215e-05 -0.00014675)
(-0.000103189 -4.53034e-05 -0.000163047)
(-0.000151271 3.82789e-05 0.000211885)
(-0.000182255 4.32682e-05 0.00019888)
(-0.000118934 3.20108e-05 6.80973e-05)
(-0.000137783 2.94705e-05 6.44348e-05)
(-9.977e-05 2.36565e-05 4.3528e-05)
(-0.000112078 2.47129e-05 3.77499e-05)
(-0.000120614 4.0385e-05 2.08206e-05)
(-0.000118295 4.0818e-05 1.5149e-05)
(-0.000178605 5.76327e-05 3.24659e-05)
(-0.000159869 4.93345e-05 2.37209e-05)
(-0.000122055 3.98769e-05 7.33557e-05)
(-0.000136854 4.785e-05 8.09933e-05)
(-5.25697e-05 -3.17102e-06 0.00015967)
(-4.68126e-05 -4.8597e-06 0.000148399)
(-6.07031e-05 1.02094e-05 7.85595e-06)
(-5.9706e-05 1.15781e-05 7.4392e-06)
(0.000571615 6.38486e-05 0.000199691)
(0.000620497 4.39191e-05 0.00021707)
(0.0010723 0.000258105 0.000377639)
(0.00121793 0.000334132 0.00040043)
(0.000992591 5.91337e-05 0.000139458)
(0.000947197 3.0438e-05 0.000166199)
(-4.75068e-05 -1.44157e-05 -0.000392181)
(-2.7052e-05 -1.10985e-05 -0.000357822)
(-5.11423e-05 -1.96969e-06 -0.000358672)
(-4.37421e-05 -6.23201e-06 -0.000297179)
(-7.31044e-05 -2.04201e-07 -0.000305218)
(-5.62479e-05 -3.19633e-06 -0.000248385)
(-6.60622e-05 -7.56497e-07 -0.000215985)
(-6.48727e-05 1.20374e-06 -0.000181663)
(-5.37336e-05 -1.2357e-06 -0.000150937)
(-6.62043e-05 1.5409e-06 -0.000158272)
(-5.79159e-05 -2.10487e-07 -0.000128109)
(-6.10839e-05 2.4653e-06 -0.000129642)
(0.000440606 7.97364e-05 0.000255043)
(0.000458715 9.36505e-05 0.000223736)
(-2.04033e-05 1.44376e-05 0.000136187)
(6.40554e-05 2.19789e-05 0.000190903)
(-1.35312e-05 9.81092e-06 0.000139151)
(-0.000468285 -0.000131194 -0.000448093)
(-0.000495854 -0.000108914 -0.000456751)
(1.90419e-05 3.45104e-05 0.000291274)
(-1.27843e-05 -1.18109e-05 0.000225148)
(9.15703e-06 -8.72511e-07 -4.07553e-05)
(1.18181e-05 2.48599e-06 -3.70218e-05)
(5.95473e-06 3.66536e-08 -3.64573e-05)
(1.88244e-06 -2.27114e-06 -3.54072e-05)
(9.90992e-06 8.73457e-08 -3.79308e-05)
(-0.000117784 -1.79293e-05 -0.000107252)
(-0.000129842 -7.18826e-06 -0.00011646)
(-5.62018e-05 4.63587e-06 -0.000107696)
(-5.68428e-05 1.70753e-08 -0.000109637)
(-2.02701e-05 1.53016e-06 -2.09823e-05)
(-2.02758e-05 1.5442e-06 -2.054e-05)
(-1.82658e-05 1.59918e-06 -1.98831e-05)
(-1.73984e-05 1.96183e-06 -1.91031e-05)
(-1.97953e-05 8.92766e-07 -1.98222e-05)
(2.2064e-05 -1.5061e-06 -6.85645e-06)
(1.90763e-05 -1.59984e-06 -1.05371e-05)
(-1.64264e-07 4.36816e-06 1.72531e-07)
(6.52925e-07 -2.27536e-08 1.35487e-07)
(8.1682e-06 -7.90622e-07 -4.59287e-07)
(1.93917e-05 3.48304e-07 1.33244e-05)
(1.87743e-05 3.60808e-07 1.36519e-05)
(2.74889e-05 -2.61367e-06 1.93126e-05)
(5.50814e-06 4.69913e-07 -3.15462e-05)
(1.68489e-06 -1.54443e-06 -3.03927e-05)
(4.77375e-06 8.28572e-07 -2.68843e-05)
(2.48697e-05 -2.69815e-06 1.79653e-05)
(2.45699e-05 -2.52853e-06 1.77894e-05)
(2.12347e-05 -1.89597e-06 1.58868e-05)
(-4.34901e-05 -4.77645e-06 -3.93553e-05)
(1.12237e-06 -9.42433e-07 -2.59688e-05)
(4.04279e-06 1.06019e-06 -2.29503e-05)
(7.73967e-07 -4.63874e-07 -2.23029e-05)
(3.62481e-07 -2.53445e-07 -1.90218e-05)
(-5.74865e-08 5.27208e-08 -1.6245e-05)
(-6.96742e-07 1.69656e-07 -1.4324e-05)
(-3.73166e-06 -2.38501e-07 -1.13076e-05)
(-4.38693e-06 -9.23877e-08 -1.06252e-05)
(-5.21134e-06 -6.01124e-09 -1.04244e-05)
(-8.47456e-06 -2.31938e-07 -1.16609e-05)
(-8.80096e-06 -1.78303e-07 -1.22594e-05)
(-4.88611e-05 -9.72188e-07 -4.28716e-05)
(-9.1568e-06 -3.01868e-08 -1.32471e-05)
(-1.82374e-05 -4.47315e-06 -2.22358e-05)
(-1.51877e-05 -4.42948e-06 -1.77587e-05)
(-9.13458e-06 -1.15075e-07 -1.40256e-05)
(-9.13467e-06 2.61766e-08 -1.51825e-05)
(-8.78954e-06 -5.0535e-07 -1.56599e-05)
(-9.03224e-06 3.25553e-08 -1.6718e-05)
(-8.53836e-06 -5.6819e-07 -1.75629e-05)
(-8.08167e-06 -2.4842e-07 -1.80366e-05)
(-7.84368e-06 -9.8112e-07 -1.95696e-05)
(-7.60906e-06 -1.53431e-06 -1.84045e-05)
(4.05454e-06 -8.95455e-07 -2.62433e-05)
(3.86808e-06 -2.88749e-06 -2.76915e-05)
(2.35371e-06 -2.9056e-06 -2.61724e-05)
(-0.000275979 -6.2907e-05 0.000486524)
(-0.000278956 -6.1386e-05 0.000441184)
(-1.41871e-05 -1.23987e-06 5.41222e-06)
(-1.22299e-05 -1.43428e-06 6.87954e-06)
(-4.03606e-05 -1.88867e-06 1.71019e-05)
(-3.46496e-05 -3.16501e-06 1.57599e-05)
(-4.23479e-06 -9.62128e-06 -5.25865e-06)
(-2.02787e-06 -9.47861e-06 -2.62557e-06)
(-0.000127464 2.53727e-05 0.000184025)
(-0.000110675 3.41115e-05 0.000156508)
(-0.00016017 -1.75056e-05 0.000274252)
(-0.000139952 -2.35511e-05 0.000236088)
(-0.000102925 -5.9572e-06 0.000172814)
(-9.00543e-05 -9.01559e-06 0.000148742)
(-0.000156571 9.40789e-05 0.000467577)
(-0.000217121 0.000169331 0.000653793)
(7.54262e-06 -1.19191e-05 0.00018861)
(-1.09908e-06 -4.67184e-06 0.000159355)
(-0.000102122 2.75615e-05 0.000193034)
(-5.57383e-05 1.30861e-06 0.000167465)
(-0.000180526 -5.62899e-05 0.000491334)
(-0.000180358 -3.921e-05 0.000491979)
(-0.000180199 -4.44601e-05 0.000525946)
(-0.000196125 -2.06297e-05 0.000527555)
(-0.000559991 1.81349e-06 -0.000151446)
(-0.000642563 2.5165e-06 -0.000183634)
(-2.27558e-05 -7.96783e-05 9.95806e-06)
(-2.655e-05 -7.89422e-05 1.19241e-05)
(-2.14532e-05 -4.38706e-05 6.54912e-05)
(-2.52163e-05 -5.36592e-05 8.18315e-05)
(-2.90522e-05 -5.25541e-05 6.60891e-05)
(-2.3222e-05 -4.04581e-05 5.37505e-05)
(-1.54689e-05 -8.61465e-05 8.48784e-06)
(-1.98962e-05 -9.83539e-05 6.53326e-06)
(-2.34964e-05 -8.34772e-05 8.81941e-06)
(-2.18839e-05 -8.64849e-05 9.21278e-06)
(-2.31359e-05 -0.000128636 -1.56103e-05)
(-1.99742e-05 -0.000111411 -1.41257e-05)
(-7.64303e-06 -5.66218e-05 -3.31689e-06)
(-9.87891e-06 -5.0537e-05 -4.75771e-06)
(-6.09796e-05 -3.12226e-05 9.45462e-05)
(-5.5768e-05 -3.30484e-05 8.93465e-05)
(8.89476e-05 3.92069e-06 -0.000234172)
(9.6775e-05 -4.94893e-06 -0.00021895)
(-0.000137176 -5.94046e-05 -1.25045e-05)
(-0.000136004 -6.63865e-05 -1.46983e-05)
(-0.000299055 -4.80726e-05 0.000146284)
(-0.000320978 -5.22255e-05 0.000137552)
(-0.000291596 -7.4436e-05 -2.60526e-05)
(-0.000284963 -6.16681e-05 -3.52533e-05)
(-0.000173678 0.000193097 0.000236483)
(-0.00016749 0.000241683 0.000219553)
(-0.000249102 -4.48474e-05 1.31763e-05)
(-0.000131155 -4.67324e-05 -1.84865e-05)
(-0.000206896 -7.75989e-05 7.47351e-05)
(-0.000178251 -7.60243e-05 6.31953e-05)
(-0.000227746 -5.19549e-05 5.88567e-05)
(-6.74152e-05 -4.22362e-05 -7.10541e-06)
(-3.91094e-05 -2.09135e-05 6.05113e-05)
(-3.22291e-05 -1.93914e-05 5.58651e-05)
(0.000573946 -0.000229686 0.000422124)
(0.000521686 -0.000198881 0.000350214)
(0.00051047 -0.000289333 0.000229226)
(0.000474595 -0.000211257 0.000258531)
(0.000486072 -0.000248461 0.000252446)
(0.000257142 -0.000177099 0.000185357)
(0.000353937 -0.000233087 0.000216775)
(0.00027783 -0.000175907 0.000198067)
(0.000450637 -0.00020975 0.000355105)
(0.000477535 -0.00025746 0.000339848)
(0.000467563 -0.000248851 0.000291981)
(0.000368762 -0.000254034 0.000187899)
(0.00047196 -0.000300898 0.00018642)
(0.000393535 -0.000226694 0.000239673)
(0.000157694 -9.53602e-05 0.00016048)
(0.000249864 -0.000179648 0.000184995)
(0.000193771 -0.000112746 0.000181581)
(0.000146523 -8.15642e-05 0.000165159)
(7.75453e-05 2.5429e-05 0.00015078)
(0.000272332 0.000106643 5.20546e-05)
(0.000331541 0.000106569 0.000100334)
(0.000284307 7.21303e-05 0.000111578)
(0.000300812 5.78206e-05 5.27616e-05)
(0.000359609 6.16217e-05 9.98943e-05)
(0.000323827 9.56874e-05 9.55422e-05)
(0.00029184 7.2494e-05 7.43588e-05)
(9.75084e-05 4.39484e-05 0.000106219)
(0.000110405 5.51496e-05 0.000101794)
(9.66775e-05 4.55214e-06 0.000154917)
(0.00010021 7.7177e-06 0.000155818)
(0.000116084 3.87642e-06 0.000176715)
(9.51575e-05 -3.02093e-06 0.000156141)
(0.00010348 2.18284e-05 0.000154603)
(8.22326e-05 2.63823e-05 0.0001215)
(7.52522e-05 2.70541e-05 9.25891e-05)
(7.16091e-05 6.49114e-06 0.000110522)
(6.96353e-05 -1.13409e-06 0.000123259)
(4.77122e-05 -1.33576e-05 9.82232e-05)
(6.4115e-05 -1.71488e-05 0.000114344)
(5.38036e-05 5.62732e-06 8.6261e-05)
(4.17644e-05 2.3996e-06 7.27785e-05)
(4.67532e-05 -5.64782e-07 8.20983e-05)
(0.000145762 8.31196e-05 6.21084e-05)
(0.000173986 9.27429e-05 7.68271e-05)
(0.000178106 8.44682e-05 8.69251e-05)
(0.000170902 8.10256e-05 5.73238e-05)
(0.000107704 5.64403e-05 9.03824e-05)
(0.000121804 6.54624e-05 6.47196e-05)
(0.000129285 7.27381e-05 4.16439e-05)
(0.000131582 6.27684e-05 5.00157e-05)
(0.00011471 5.85552e-05 5.70041e-05)
(0.000254872 0.0001038 4.56153e-05)
(0.000207516 9.66884e-05 4.31625e-05)
(0.000272375 9.67055e-05 5.84553e-05)
(0.00024944 7.13418e-05 4.42232e-05)
(0.000219225 9.08885e-05 3.12086e-05)
(0.000202576 6.96524e-05 3.67252e-05)
(7.54646e-05 3.62012e-05 6.80674e-05)
(8.01275e-05 3.64683e-05 7.01269e-05)
(6.29846e-05 2.10699e-05 7.98403e-05)
(9.43767e-05 5.26132e-05 5.70092e-05)
(5.11381e-05 1.58131e-05 6.43485e-05)
(6.16506e-05 3.24095e-05 4.50464e-05)
(0.000107313 5.48936e-05 6.33587e-05)
(0.000141961 7.18264e-05 3.35765e-05)
(6.59625e-05 4.12072e-05 1.6552e-05)
(7.89389e-05 4.12692e-05 3.22928e-05)
(6.74385e-05 4.07961e-05 2.67174e-05)
(0.000127153 7.37317e-05 1.30428e-05)
(0.000159198 7.94817e-05 -5.84717e-06)
(0.000145742 5.63954e-05 2.91389e-05)
(0.000141657 6.86153e-05 1.7703e-05)
(0.000311505 2.74971e-05 0.000544384)
(0.000349459 5.63284e-05 0.000633617)
(0.000317086 -1.75537e-06 0.000565416)
(0.000328215 2.82172e-05 0.000580574)
(0.000361983 0.000101296 0.000405218)
(0.000393022 0.00010741 0.000483193)
(0.000280976 9.6809e-05 0.000397783)
(0.000307859 9.12702e-05 0.000456104)
(0.000295306 0.000104871 0.000445764)
(0.000277463 8.69515e-05 0.000459589)
(0.000394251 0.000156606 0.000513992)
(0.000330855 0.00013291 0.000387097)
(0.0003784 0.000139465 0.000483436)
(0.000240081 9.03141e-05 0.00039371)
(0.000322733 0.000116825 0.000491675)
(0.000412228 0.000131633 0.000392721)
(0.000366696 0.00013525 0.000459573)
(0.000360738 0.000132662 0.000461928)
(0.000412151 0.000134736 0.000568271)
(0.000428807 0.000169693 0.00050439)
(0.000471666 0.000183694 0.000501532)
(0.000461103 0.000190047 0.000471108)
(0.000451472 0.000157878 0.000563938)
(0.000436505 0.000162268 0.000564171)
(0.000409613 7.55224e-05 0.000479305)
(0.000524162 8.13247e-05 0.000511947)
(0.00040127 9.50726e-05 0.000492679)
(0.000308337 9.6039e-05 0.00038298)
(0.000390137 9.28366e-05 0.000478865)
(0.000426646 7.24713e-05 0.000418059)
(0.000319635 5.74429e-05 0.000313692)
(0.000343695 0.000103427 0.000374254)
(0.000370428 8.56258e-05 0.00036456)
(0.000373457 9.569e-05 0.000354744)
(0.000506305 -4.166e-05 0.000445902)
(0.000522417 -6.02524e-05 0.000443557)
(0.000538203 -0.000145313 0.000426312)
(0.000417499 -6.47542e-05 0.000380343)
(0.00050286 -0.000124436 0.000331057)
(0.000392606 -9.62341e-06 0.000349256)
(0.000547453 -0.000135653 0.000357723)
(0.000371074 -2.92579e-05 0.000295865)
(0.000480743 -0.000103936 0.000283464)
(0.000568413 -0.000220326 0.000269603)
(0.000348575 5.91088e-05 0.000362473)
(0.000348397 8.7348e-05 0.000378978)
(0.000388514 2.41278e-05 0.000312685)
(0.000384671 6.44607e-05 0.000329254)
(0.000402668 0.000144968 0.000386828)
(0.000433575 0.000149249 0.000517583)
(0.00043311 0.000147993 0.000466326)
(0.000449311 0.000129506 0.000379741)
(0.000504186 0.000164559 0.000422569)
(0.000499415 0.000190345 0.00053053)
(0.000446933 0.000156923 0.00052771)
(0.000473882 0.000155406 0.000558195)
(0.000474393 0.000173448 0.000401689)
(0.0004551 0.000160262 0.000531033)
(0.000455386 0.000164994 0.000531083)
(0.000572579 0.000207524 0.000661105)
(0.000548067 0.000196193 0.000517805)
(0.000407522 0.000118534 0.000373689)
(0.000576672 0.000181862 0.000424936)
(0.00045908 0.000105581 0.000392997)
(0.000589278 0.000148841 0.000398731)
(0.000516807 0.000179479 0.000441294)
(0.000522986 0.000164698 0.000514697)
(0.000698399 0.000263415 0.000526319)
(0.000554454 0.000188593 0.000431731)
(0.000531118 0.000161504 0.000455923)
(0.000740662 0.000261249 0.000482669)
(0.000567893 0.000245393 0.000485437)
(0.000605096 0.000209349 0.000595401)
(0.000560872 0.000181806 0.000629391)
(0.000663585 0.000226731 0.00062056)
(0.000663039 0.000232977 0.000599542)
(0.000349269 0.000138274 0.000458919)
(0.000341615 0.000129511 0.000455028)
(0.000234391 6.89637e-05 0.000427958)
(0.000339078 0.000127532 0.000492318)
(0.000425657 0.000119246 0.000636573)
(0.000389577 0.000109498 0.000586758)
(0.000376288 0.000143542 0.000492211)
(0.000396248 0.000151824 0.000512691)
(0.000379552 0.000145442 0.000560583)
(0.000360118 6.04581e-05 0.00064531)
(0.000310921 4.06526e-05 0.000578381)
(0.000365855 0.000106176 0.000607924)
(0.00034779 9.36536e-05 0.00059937)
(0.000311231 4.00106e-05 0.000505971)
(0.000422129 0.000167613 0.000537845)
(0.000446861 0.000136828 0.000625892)
(0.000398368 0.000120233 0.000608141)
(0.000383717 -6.90225e-06 0.000634732)
(0.000474083 0.000141414 0.00071286)
(0.000356017 5.63712e-05 0.000608457)
(0.000461258 0.000183151 0.000527357)
(0.000501072 0.000192771 0.000567269)
(0.000446919 0.000138883 0.000629186)
(0.00043577 0.000171949 0.000560843)
(0.000503848 0.000201 0.000566082)
(0.000501809 0.000124556 0.000697072)
(0.000511327 0.000141929 0.000781495)
(0.000407155 4.42249e-05 0.000675784)
(0.00037358 4.38196e-05 0.000612791)
(0.000405351 7.44148e-05 0.000648365)
(0.000460626 0.000127926 0.00068754)
(0.000393196 7.13535e-05 0.000607066)
(0.000511699 0.000215854 0.00060322)
(0.000511234 0.000103343 0.000749904)
(0.000591122 0.000189204 0.000851348)
(0.000279596 1.05267e-05 0.000488433)
(0.000291187 5.35929e-05 0.000498597)
(0.000354508 0.00013039 0.000554728)
(0.000373588 8.25966e-05 0.000632636)
(0.00035116 2.52879e-05 0.000582406)
(0.000435245 9.21699e-05 0.000691486)
(0.000333403 -1.29456e-05 0.000563638)
(0.000336061 3.85763e-05 0.00055655)
(0.000428217 0.000142308 0.000673173)
(0.000356579 4.52026e-05 0.000606562)
(0.00031097 3.63388e-05 0.000521809)
(0.000379168 -4.77025e-06 0.000625486)
(0.00032842 4.20865e-05 0.000551512)
(0.000351194 4.55891e-05 0.000578799)
(0.000426626 4.19879e-05 0.000697001)
(0.000333175 8.73463e-05 0.00057292)
(0.000332343 5.90407e-05 0.000560064)
(0.000423203 -5.79528e-05 0.000648534)
(0.000477192 0.000127337 0.000751547)
(0.000409724 -2.28488e-05 0.000690445)
(0.000522199 6.50573e-05 0.000853767)
(0.000398759 1.11302e-05 0.000666454)
(0.000419184 3.26161e-05 0.000684628)
(0.000528217 0.000159122 0.000767133)
(0.000423343 5.31587e-05 0.000676543)
(0.000483416 3.48305e-05 0.000769759)
(0.000520511 4.48962e-05 0.000852859)
(0.000529954 1.93413e-05 0.000850624)
(0.000418881 3.61655e-05 0.000671008)
(0.000473118 4.18292e-05 0.000750808)
(0.000423112 1.68402e-05 0.000671987)
(0.000482131 5.01988e-05 0.00076336)
(0.000545965 0.00017348 0.000688666)
(0.000534936 0.000190841 0.000617468)
(-2.10079e-05 -4.91165e-05 0.000160233)
(0.000564139 0.000151204 0.000776795)
(0.000490258 0.000136294 0.000667478)
(0.000614825 0.000226321 0.000668141)
(0.000572609 0.000219463 0.000602332)
(0.000608769 0.000213054 0.000677569)
(-2.52662e-05 -4.87913e-05 0.000159673)
(0.000543328 0.000171423 0.000714342)
(0.000561827 0.000205628 0.000658628)
(0.000608931 0.000226396 0.000688217)
(0.00055507 0.000166347 0.000766767)
(0.000623598 0.000175726 0.000912738)
(-2.29063e-05 -4.85725e-05 0.00015695)
(0.000466921 6.87516e-05 0.000729845)
(0.000432644 6.11992e-05 0.000709918)
(0.000465724 9.32916e-05 0.000706746)
(0.000525875 5.84844e-05 0.000795055)
(0.000463398 0.000104799 0.000703857)
(-2.53763e-05 -3.80835e-05 0.000159963)
(0.000574787 0.000233519 0.00066492)
(0.000594417 0.000120167 0.000838188)
(0.000682232 0.000215925 0.000930961)
(0.000654764 0.000217536 0.000775744)
(0.000715453 0.000252075 0.000651123)
(0.000773734 0.000286113 0.000656171)
(0.000644428 0.000188576 0.00083467)
(0.000603017 0.000173388 0.000748584)
(0.000633085 0.000257146 0.000627047)
(0.000666867 0.000236925 0.000680443)
(0.000642981 0.000203782 0.000761262)
(0.000711287 0.000244082 0.000810833)
(0.000738112 0.000282879 0.000779743)
(0.000658981 0.000204818 0.000838956)
(0.000684769 0.000170155 0.000942123)
(0.00056088 0.000135243 0.000785712)
(0.000628111 0.000139784 0.000977037)
(0.000509788 0.000102356 0.000755026)
(0.000588448 8.14651e-05 0.000889957)
(0.000732339 0.000241864 0.000928283)
(0.000607407 0.000194901 0.000770275)
(0.000647907 0.000169812 0.000923857)
(0.00054113 9.12824e-05 0.000871985)
(0.000559139 0.000148933 0.000793132)
(0.000732992 0.000133916 0.0010279)
(0.000640475 0.000145914 0.000994212)
(0.00059096 6.61507e-05 0.000948603)
(0.000591534 2.25723e-05 0.000942533)
(0.000475306 2.90448e-05 0.000788551)
(0.000467235 6.35346e-05 0.000734822)
(0.000602476 0.000120592 0.000871573)
(0.000616675 0.000128813 0.00096292)
(0.000577761 2.88503e-05 0.000904789)
(0.000595039 4.17108e-05 0.000936737)
(0.000603521 -3.4917e-05 0.000938526)
(0.000583531 4.33016e-05 0.000894011)
(0.000671199 0.000133169 0.000974012)
(-3.13505e-05 -4.31827e-05 0.000168351)
(0.000503678 3.10077e-07 0.00082397)
(0.00045798 5.7087e-05 0.000721155)
(0.000652686 0.000155199 0.000960882)
(0.000682981 0.000194525 0.00102174)
(0.000568199 4.18966e-07 0.000948198)
(0.000710395 6.83009e-05 0.00112047)
(0.000529302 4.66241e-05 0.000832167)
(0.000652165 3.47396e-05 0.00100048)
(0.000522086 6.00437e-05 0.000826697)
(0.000501995 -1.08929e-05 0.000766627)
(0.000643532 -8.52751e-05 0.000954895)
(0.000695488 3.89866e-05 0.0011018)
(0.000695566 9.52822e-06 0.00109144)
(0.000361618 -5.07453e-05 0.00052526)
(0.000284027 1.92833e-05 0.000439915)
(0.000317891 9.50162e-06 0.000455952)
(0.000306509 9.07311e-06 0.000468201)
(0.000220382 3.936e-05 0.000393421)
(0.00029257 2.77688e-05 0.000453286)
(0.000373636 3.35023e-06 0.00048578)
(0.000292576 4.60431e-05 0.000457946)
(0.000344509 4.3965e-05 0.000611765)
(0.000345779 6.04476e-05 0.000585851)
(-2.31186e-05 -4.1822e-05 0.000153525)
(-2.67869e-05 -4.38546e-05 0.000160426)
(-2.47867e-05 -4.05206e-05 0.000148603)
(-2.62694e-05 -3.6842e-05 0.000149465)
(0.000386025 3.33581e-05 0.000604534)
(0.00034924 7.47848e-05 0.000554228)
(0.000415099 1.52213e-05 0.000557722)
(0.000371607 3.25692e-05 0.000500919)
(0.00039162 -1.06767e-05 0.000507977)
(0.000387803 6.51864e-06 0.000479985)
(-2.97117e-05 -3.62327e-05 0.000154843)
(0.000408419 2.62701e-06 0.00052692)
(-3.5035e-05 -2.89043e-05 0.000164919)
(-3.01269e-05 -3.46134e-05 0.000155932)
(0.000429267 1.38973e-05 0.000222023)
(0.000425573 1.75561e-05 0.000266121)
(0.000407354 -1.11054e-05 0.000254877)
(-3.34672e-05 -3.44571e-05 0.000153959)
(-2.65204e-05 -3.83384e-05 0.000164598)
(-2.5916e-05 -4.18778e-05 0.00016114)
(-3.23198e-05 -3.37792e-05 0.000175033)
(-3.38616e-05 -4.23194e-05 0.000182642)
(-2.97039e-05 -3.03039e-05 0.000166646)
(-2.85669e-05 -2.6254e-05 0.000159447)
(-3.46653e-05 -3.44966e-05 0.000159033)
(0.000378409 6.27537e-05 7.9819e-05)
(0.000437325 6.31661e-05 0.000140641)
(0.000360526 3.37324e-05 8.74229e-05)
(0.00034634 6.54071e-05 6.87838e-05)
(0.000363077 4.75356e-05 9.18758e-05)
(0.000421986 1.3249e-05 0.000132257)
(0.000408337 1.44699e-05 0.000190117)
(0.000437429 -2.60762e-05 0.00020067)
(0.000430238 3.51164e-06 0.000168046)
(0.000409373 2.76057e-06 0.000206769)
(0.000399378 3.09319e-05 9.90472e-05)
(0.000417244 -4.48203e-06 0.00010601)
(0.000422746 -6.90421e-06 0.000377415)
(0.000400643 7.34824e-06 0.00041025)
(0.000392089 -8.64657e-07 0.000429424)
(0.000353289 7.14921e-06 0.000412028)
(0.000383218 3.46968e-06 0.000449117)
(0.000321646 2.47131e-05 0.000417565)
(0.000451626 -1.00135e-06 0.000411512)
(0.000458846 -2.22481e-05 0.000353585)
(0.000459992 -1.18782e-05 0.000338284)
(0.000401347 -2.68479e-06 0.000348237)
(0.000386165 -1.9597e-05 0.00044049)
(0.000400272 -1.20593e-05 0.000395011)
(0.000425648 2.34089e-05 0.000506863)
(0.000487283 -2.96793e-05 0.000253753)
(0.000454985 -4.64869e-05 0.000336632)
(0.000463712 -4.79552e-05 0.000282821)
(0.000477705 -3.03535e-05 0.000354121)
(0.000509116 -7.87506e-05 0.000237678)
(0.000451154 -4.27233e-05 0.000388403)
(0.00042306 -3.8606e-05 0.000449379)
(0.000461276 -6.60443e-05 0.000430405)
(0.000465247 -1.17325e-05 0.00051703)
(0.000543589 -9.17721e-05 0.000416369)
(0.000505963 -9.47419e-05 0.000344959)
(0.000515795 -8.58357e-05 0.000279778)
(0.000502832 -6.25153e-05 0.000350162)
(0.00044674 -4.41111e-05 0.000185567)
(0.000442485 -3.56669e-05 0.000149766)
(0.000474511 -3.82053e-05 0.000189756)
(0.000319048 7.30757e-05 3.93491e-05)
(0.000330657 5.70999e-05 6.57295e-05)
(0.000283338 8.07445e-05 1.80335e-05)
(0.00030971 6.88186e-05 3.59749e-05)
(0.000353078 3.27062e-05 5.88593e-05)
(0.000398803 1.74259e-06 8.17597e-05)
(0.000328137 4.65477e-05 5.73214e-05)
(0.000215747 7.85383e-05 4.71659e-06)
(0.000299504 8.71347e-05 2.0806e-05)
(0.000133395 6.44334e-05 4.19102e-05)
(0.00014548 6.31717e-05 1.92423e-05)
(0.000247235 9.36486e-05 1.21602e-05)
(0.000262912 7.06496e-05 4.87965e-05)
(0.000242138 3.94495e-05 -1.15766e-05)
(0.000285567 4.90453e-05 3.47247e-05)
(0.000344562 3.81872e-05 2.41578e-05)
(0.000239887 7.48626e-05 1.01804e-05)
(0.00023057 5.40451e-05 1.48967e-05)
(0.000309367 5.44371e-05 2.13916e-05)
(0.000574641 -0.000126635 0.000207133)
(0.000563977 -0.000131279 0.000359717)
(0.000549294 -0.000128894 0.000286393)
(0.000576927 -0.000117964 0.000364371)
(0.00045439 -2.46677e-05 0.000121457)
(0.000499028 -9.59013e-05 0.000184118)
(0.000458606 -4.82679e-05 0.000161542)
(0.000464197 -6.83746e-05 0.000165902)
(0.000414694 -1.33747e-05 7.84389e-05)
(0.000450659 -5.31035e-05 0.000114949)
(0.000537119 -0.000104685 0.00014905)
(0.000582789 -0.000121564 0.000188013)
(0.000609176 -0.000187701 0.000256302)
(0.000572422 -0.000129426 0.000179319)
(0.000545745 -0.00013601 0.000209607)
(0.000381673 1.76907e-05 4.66547e-05)
(0.000394249 -5.92142e-06 4.81865e-05)
(0.000425398 -5.45956e-05 0.000104275)
(0.00039726 -6.49312e-06 7.5499e-05)
(0.000412552 -3.25369e-05 6.75211e-05)
(0.000325217 3.42423e-05 4.99524e-05)
(0.000373058 -3.2742e-06 4.79272e-05)
(0.000549439 -9.697e-05 0.000112569)
(0.000579596 -0.000150864 0.000131335)
(0.0006021 -0.000153654 0.000119903)
(0.000466676 -6.72739e-05 0.000117617)
(0.000429599 -3.08574e-05 0.000128707)
(0.000477493 -6.68175e-05 9.65561e-05)
(0.000304171 5.39437e-05 0.000519798)
(0.000323019 3.45039e-05 0.000536499)
(0.000364547 -1.62297e-05 0.000571358)
(0.00036331 7.86189e-06 0.000564464)
(0.000310535 7.21557e-05 0.000523872)
(0.000350686 6.62545e-06 0.000530508)
(0.000451485 -2.67508e-05 0.000673231)
(0.000322513 2.85311e-05 0.000527843)
(0.000354492 1.46239e-05 0.000547294)
(0.000409063 2.49273e-05 0.000629714)
(0.000401022 -1.1613e-05 0.000556966)
(0.00036907 1.14229e-05 0.000521276)
(0.000411089 1.62462e-05 0.0005888)
(0.00048096 -1.73341e-05 0.000683655)
(0.000488394 2.03953e-05 0.000804514)
(0.000366353 4.91289e-05 0.000587228)
(0.000418675 4.91365e-05 0.000677684)
(0.00040344 5.38712e-05 0.000676053)
(0.000431604 4.34883e-06 0.000663365)
(0.00057169 -6.78131e-05 0.000808266)
(0.0005287 -0.000113058 0.000707084)
(0.000436679 6.49946e-05 0.000713064)
(0.000457142 -1.31512e-05 0.000674945)
(0.000409983 7.03798e-06 0.00057947)
(0.000461882 7.3522e-06 0.000658289)
(0.0004513 -3.7257e-05 0.000565497)
(0.000408342 -2.78647e-05 0.000491122)
(0.000457601 -1.20301e-05 0.000585208)
(-3.6211e-05 -2.9988e-05 0.00016091)
(0.000526554 -0.000106225 0.000633407)
(0.000495974 -7.29421e-05 0.000537418)
(0.000540004 -2.64646e-05 0.000661192)
(0.000428097 -2.06182e-05 0.000614712)
(0.000497058 -5.29186e-05 0.000634203)
(0.00056446 -4.26957e-05 0.000739337)
(0.000514688 -0.000102066 0.000525502)
(0.000506457 -9.50016e-05 0.000439555)
(0.000492518 -3.92374e-05 0.000544221)
(0.00063421 -3.94617e-05 0.00096796)
(0.000441994 8.93294e-06 0.000678477)
(-3.6359e-05 -2.58184e-05 0.000148727)
(0.000472373 -1.88898e-05 0.000677697)
(0.000545268 -1.11489e-05 0.000798157)
(0.000618989 -8.37787e-05 0.000872932)
(0.000632058 -0.000128312 0.000805467)
(0.000463443 -6.08983e-05 0.000583071)
(-4.14756e-05 -2.12605e-05 0.000160484)
(0.000574672 -0.00020351 0.000537869)
(0.000599119 -7.64873e-05 0.000724274)
(0.000609454 -9.58028e-05 0.00083255)
(0.000537975 -9.94291e-05 0.000685423)
(0.000598353 -6.20806e-05 0.000797028)
(0.000663746 -0.000138271 0.000779943)
(0.000593759 -0.000122639 0.000627741)
(0.000727138 -0.000235844 0.000793788)
(0.000647892 -0.000242595 0.000616273)
(0.000678119 -0.000166045 0.000769602)
(0.000479871 1.92689e-05 0.000752226)
(0.000484563 -3.57344e-05 0.000709718)
(0.000595351 -5.32902e-05 0.000860201)
(0.000640383 -5.38538e-05 0.000957928)
(0.000628731 -0.000150791 0.000874633)
(0.000576135 2.72285e-05 0.000870312)
(0.000658482 -0.000108116 0.000983725)
(0.00062104 6.36589e-05 0.00097177)
(0.00058266 -5.48791e-05 0.000865624)
(0.000572182 -8.90574e-05 0.000802328)
(0.000682645 -0.00013078 0.000943375)
(0.000563922 -0.000109015 0.000780094)
(0.000616615 -0.00016096 0.000753412)
(0.000699317 -0.000148836 0.00089051)
(0.000799452 -0.000232702 0.000957607)
(0.000615413 -0.000225905 0.000707483)
(0.000728872 -0.000327163 0.000643671)
(0.000743415 -0.000180474 0.000849561)
(0.000607162 -0.000166272 0.000428672)
(0.000507632 -0.000163781 0.00045176)
(0.000595196 -0.000181677 0.000459741)
(0.000579639 -8.64038e-05 0.000601225)
(0.000638116 -0.000163203 0.000607305)
(0.000635176 -0.000199842 0.00042803)
(0.000587284 -0.000194324 0.000376444)
(0.000650952 -0.000204204 0.000268742)
(0.000593601 -0.00015208 0.000363081)
(0.000684988 -0.000239597 0.000436986)
(0.000696068 -0.000283662 0.000307478)
(0.000682095 -0.000232818 0.000409455)
(0.000708574 -0.000249837 0.000610588)
(-4.4192e-05 -1.70952e-05 0.000158725)
(0.000677357 -0.000293719 0.000456246)
(0.000686431 -0.000219261 0.000600004)
(0.000809985 -0.000361588 0.000717632)
(0.000788069 -0.000387351 0.00049416)
(0.000743207 -0.000260624 0.000663562)
(-4.74798e-05 -1.24105e-05 0.000160033)
(0.000770748 -0.000349106 0.000495884)
(0.000808988 -0.000365973 0.00036196)
(-3.59828e-05 -3.43402e-05 0.000183131)
(0.000708496 -0.000260934 0.000472011)
(0.000635866 -0.000204829 0.000278013)
(-4.00322e-05 -2.70578e-05 0.000186378)
(0.000646878 -0.000184811 0.000236025)
(0.000631685 -0.000196646 0.00024685)
(-3.42722e-05 -3.41693e-05 0.000168441)
(0.000707248 -0.000196702 0.000190193)
(-3.74217e-05 -1.67235e-05 0.000169789)
(-4.07095e-05 -2.8638e-05 0.000183231)
(0.000724372 -0.000313565 0.000261004)
(0.000679475 -0.000238464 0.000232098)
(-4.18643e-05 -2.72182e-05 0.00018289)
(0.000674567 -0.000237507 0.000297048)
(0.000427255 -0.000263463 0.000220309)
(-4.53973e-05 -1.98002e-05 0.000178182)
(0.000487893 -0.00031054 0.000172822)
(0.000390953 -0.000253251 0.000170374)
(-4.44201e-05 -2.04482e-05 0.000182304)
(0.000294532 -0.000199682 0.000182832)
(0.000362245 -0.000250565 0.000179635)
(-4.83096e-05 -1.30703e-05 0.000191005)
(0.000263757 -0.000189036 0.000147634)
(0.000319785 -0.000193535 0.00023082)
(-3.71519e-05 -1.96281e-05 0.000164337)
(-3.36642e-05 -1.74113e-05 0.000151578)
(0.000364582 -0.000234002 0.000172605)
(-3.92893e-05 -2.37989e-05 0.00015404)
(-4.11445e-05 -1.82259e-05 0.000168317)
(0.000188797 -0.000126455 0.000153258)
(-3.95981e-05 -1.58521e-05 0.000152905)
(-4.35161e-05 -1.32359e-05 0.000166701)
(0.000249951 -0.000176498 0.000169553)
(-4.2113e-05 -1.26277e-05 0.000151071)
(0.000171764 -0.0001182 0.000132741)
(9.76473e-05 -5.98179e-05 0.000101399)
(0.000161827 -0.000102547 0.000153241)
(0.000113547 -5.89079e-05 0.000123215)
(8.21585e-05 -4.50207e-05 9.27453e-05)
(0.00012946 -6.8636e-05 0.000132468)
(9.22133e-05 -6.17851e-05 8.85304e-05)
(0.000189853 -0.00010908 0.000177618)
(0.000229046 -0.000139996 0.000169203)
(0.000242898 -0.000209762 8.63317e-05)
(0.000381085 -0.000285664 0.000115554)
(0.000269388 -0.000189471 0.000142076)
(0.000112686 -9.11288e-05 7.12551e-05)
(0.00023266 -0.00018967 0.000106605)
(0.000167896 -0.000119604 0.000121549)
(0.000126842 -9.13658e-05 0.000110981)