/*--------------------------------*- C++ -*----------------------------------*\
  =========                 |
  \\      /  F ield         | OpenFOAM: The Open Source CFD Toolbox
   \\    /   O peration     | Website:  https://openfoam.org
    \\  /    A nd           | Version:  7
     \\/     M anipulation  |
\*---------------------------------------------------------------------------*/
FoamFile
{
    version     2.0;
    format      ascii;
    class       volScalarField;
    location    "1.11";
    object      p;
}
// * * * * * * * * * * * * * * * * * * * * * * * * * * * * * * * * * * * * * //

dimensions      [0 2 -2 0 0 0 0];

internalField   nonuniform List<scalar> 
288275
(
0.000582504
0.00057874
0.000587854
0.000546625
0.000524852
0.000579206
0.000586504
0.000504011
0.000492177
0.000461714
0.000466925
0.000423133
0.0004152
0.00044491
0.0004398
0.000435298
0.000437055
0.00042692
0.000431661
0.000405525
0.000390688
0.000449914
0.000456349
0.000512443
0.000505758
0.000507467
0.00050433
0.000550444
0.000548586
0.00060144
0.000596004
0.000569402
0.000563179
0.000603327
0.000605234
0.000572359
0.000556582
0.00058273
0.000583183
0.000507664
0.000502849
0.000472292
0.000474268
0.000430197
0.000425781
0.000457657
0.000456189
0.00038298
0.000382388
0.000344736
0.000349129
0.000372385
0.000376618
0.000366873
0.000365185
0.000344607
0.000353627
0.000341397
0.000334467
0.000328222
0.000335518
0.000328813
0.00032116
0.000317298
0.000325023
0.000323375
0.000317007
0.000320563
0.000321488
0.000321232
0.000329308
0.000289332
0.00026958
0.000287308
0.000298789
0.000299141
0.000289289
0.000294927
0.000303363
0.000308868
0.000302006
0.000312393
0.000320422
0.000322986
0.000315943
0.000333403
0.000342427
0.000370958
0.000371412
0.000360604
0.000363677
0.000364001
0.00036686
0.000364112
0.000378758
0.000462328
0.000461562
0.000453914
0.00045377
0.000453207
0.000446954
0.000446053
0.000449199
0.00039895
0.000377682
0.000419198
0.000437085
0.000443138
0.000427827
0.000485124
0.000493707
0.000498728
0.000500598
0.000536627
0.000537887
0.000575079
0.000571375
0.000585957
0.000592495
0.000634621
0.000635007
0.000593002
0.000603091
0.0006349
0.000632011
0.000644621
0.000643434
0.00063262
0.000621382
0.00056506
0.000578606
0.000585284
0.000587402
0.000510873
0.000512614
0.000485779
0.000483125
0.000439833
0.000444245
0.000463889
0.000468091
0.000390338
0.000387186
0.000366827
0.000362966
0.000392695
0.000388561
0.000313081
0.000311421
0.000338859
0.000337502
0.00032531
0.000326976
0.0003178
0.000308754
0.000256437
0.000256641
0.000283214
0.000275835
0.000267911
0.000271364
0.000261535
0.000254699
0.000248235
0.000253883
0.000250222
0.000241112
0.000193946
0.000195932
0.000228138
0.000222228
0.000218004
0.000225361
0.000227246
0.000221214
0.000231128
0.000235268
0.000235084
0.000236355
0.000198269
0.000184469
0.000188344
0.000194179
0.000189176
0.000185475
0.000194166
0.000197842
0.000222265
0.000223926
0.000205094
0.00021126
0.000213949
0.000209611
0.000223673
0.000231252
0.000236074
0.000232902
0.000249309
0.000251104
0.000283928
0.000282319
0.000277144
0.000282441
0.00029706
0.000292784
0.000315506
0.00032959
0.000335883
0.000335206
0.000334336
0.000354365
0.000360809
0.000284706
0.000280693
0.000307448
0.000313602
0.000293387
0.000291054
0.000276145
0.000284053
0.000223014
0.000220834
0.000240908
0.000249747
0.000230123
0.000226544
0.000212665
0.000221842
0.000162373
0.000161905
0.000186943
0.000192252
0.000182837
0.000178465
0.000180779
0.000184431
0.000177009
0.000171066
0.000125743
0.000126379
0.000161071
0.000153869
0.00015748
0.000165339
0.000177025
0.000167802
0.000115682
0.000133641
0.000185764
0.000164438
0.000213982
0.000226725
0.000272688
0.00026363
0.000320521
0.000320408
0.000324883
0.000330523
0.00027771
0.000266456
0.000227992
0.000228477
0.000181126
0.000182719
0.000141506
0.000134464
0.000175621
0.000176282
0.000135724
0.000143738
0.000128888
0.000124804
0.000121567
0.00012317
0.000147206
0.000150344
0.000138279
0.000141995
0.000146557
0.000146724
0.000145709
0.000148254
0.000157276
0.000156886
0.000187339
0.00018846
0.000190917
0.000183485
0.000202784
0.000206173
0.000223203
0.000226476
0.000251115
0.000249738
0.000251242
0.000244661
0.000260411
0.000262721
0.000279509
0.000288994
0.000289281
0.000289206
0.000285325
0.000279532
0.000305145
0.000292916
0.000243755
0.000242429
0.000267626
0.000261267
0.000246809
0.000251048
0.000187642
0.000187224
0.000197583
0.000202663
0.000192606
0.000189178
0.000174497
0.000183254
0.000122056
0.000121482
0.000144599
0.000152017
0.000135424
0.000134776
0.00011939
0.000128595
7.69097e-05
7.61815e-05
9.27018e-05
0.000104464
0.000105222
0.000100245
9.95453e-05
0.00010547
5.35735e-05
4.16746e-05
4.0557e-05
9.09621e-05
9.63136e-05
7.79074e-05
9.63827e-05
0.000108206
0.000148887
0.000135711
0.000152217
0.000157062
0.000196163
0.000189853
0.000231779
0.000238308
0.000290487
0.000287729
0.00030663
0.000305916
0.0002602
0.000261889
0.000214656
0.000214388
0.000170761
0.000170848
0.000170127
0.000173219
0.000125449
0.000122169
0.000102956
0.000112453
0.00010554
8.34427e-05
3.2457e-05
4.8987e-05
8.96366e-05
9.05296e-05
7.20531e-05
6.97879e-05
7.99705e-05
7.95686e-05
7.77309e-05
7.72104e-05
0.000100755
9.94594e-05
9.34523e-05
8.94427e-05
0.000104682
0.000105241
0.000122837
0.000128092
0.000154335
0.000153309
0.00015532
0.000147961
0.000172222
0.000174523
0.000191979
0.000195219
0.000218291
0.000215671
0.000218845
0.000214962
0.000243966
0.000241229
0.000243145
0.00023614
0.000235062
0.000235571
0.000240079
0.000254441
0.000263369
0.000198453
0.000198144
0.000213391
0.000216541
0.000198804
0.000194154
0.000182695
0.000189571
0.000119052
0.000121059
0.000137488
0.000149842
0.000139651
0.000128297
6.77722e-05
7.08745e-05
0.000100618
9.25279e-05
8.65084e-05
8.94528e-05
8.65242e-05
7.36941e-05
2.66234e-05
2.85605e-05
5.41523e-05
4.48801e-05
5.1651e-05
5.87237e-05
-3.42859e-06
-4.67661e-05
-2.02998e-06
1.99918e-05
4.09769e-05
2.98462e-05
6.10359e-05
7.24892e-05
9.03951e-05
8.79373e-05
0.000100976
0.000103883
0.000113066
0.000111672
0.000119488
0.000120384
0.000129661
0.000125152
0.000156029
0.000160819
0.000197332
0.000190785
0.000211175
0.000215925
0.000184453
0.000178895
0.00015377
0.000151228
0.000115174
0.00011524
0.000116222
0.000117664
0.000115401
0.000115964
0.000102705
0.000104411
9.79242e-05
9.27023e-05
5.03023e-05
5.5502e-05
4.08164e-05
2.90636e-05
-1.95455e-05
1.21876e-05
2.35438e-05
7.94345e-06
6.95342e-06
7.73616e-06
2.66221e-05
2.34199e-05
3.01946e-05
2.53795e-05
1.27875e-05
1.26046e-05
9.23813e-06
-2.09935e-05
-1.418e-05
7.73255e-06
-1.72153e-06
-3.16205e-05
1.22027e-06
-2.73146e-05
-6.17094e-05
-1.55045e-05
2.57213e-06
2.37958e-05
1.34018e-05
3.57652e-05
4.05044e-05
5.46641e-05
5.24559e-05
6.09601e-05
6.37851e-05
7.12785e-05
6.51839e-05
5.60912e-05
5.66961e-05
5.92123e-05
5.91492e-05
6.61111e-05
6.37578e-05
6.54562e-05
6.94012e-05
6.49671e-05
6.18453e-05
7.43442e-05
7.27048e-05
8.63011e-05
8.82908e-05
9.86987e-05
9.13479e-05
9.97573e-05
0.000108754
9.68636e-05
9.22495e-05
7.76614e-05
7.86194e-05
8.23487e-05
8.0266e-05
8.24175e-05
8.24678e-05
8.09345e-05
8.33039e-05
7.29656e-05
7.07129e-05
6.39505e-05
6.44526e-05
5.54611e-05
5.74146e-05
4.85187e-05
4.51466e-05
3.05509e-05
3.70164e-05
1.7287e-05
6.18549e-06
-4.49636e-05
-1.5845e-05
-2.66255e-05
-6.62139e-05
-5.28635e-05
-4.39739e-05
-2.30852e-05
-2.09011e-05
-2.5283e-05
-2.75249e-05
-4.09891e-05
-3.80476e-05
-2.77255e-06
-7.23432e-06
-0.000123101
-8.91675e-05
-3.37e-05
-8.70387e-05
-5.55354e-05
-3.30645e-05
-1.08854e-05
-2.4643e-05
-6.90621e-07
7.26364e-06
2.28586e-05
1.83022e-05
3.07288e-05
3.55177e-05
2.79396e-05
2.5679e-05
3.11943e-05
3.36643e-05
3.716e-05
3.76003e-05
4.7671e-05
4.58242e-05
5.04307e-05
5.2445e-05
5.39045e-05
5.35432e-05
6.1796e-05
6.21726e-05
5.78053e-05
5.81262e-05
5.42054e-05
5.31305e-05
5.10937e-05
5.114e-05
4.14104e-05
4.1922e-05
4.07902e-05
4.24466e-05
4.33681e-05
3.90134e-05
5.15896e-05
5.76718e-05
5.95832e-05
5.32739e-05
5.24676e-05
5.66733e-05
6.52238e-05
6.54278e-05
6.5303e-05
6.63472e-05
6.5611e-05
6.26854e-05
8.06557e-05
8.18343e-05
7.81764e-05
7.47189e-05
6.87603e-05
7.443e-05
7.77893e-05
7.18758e-05
7.71218e-05
8.06232e-05
0.000101694
9.92398e-05
0.000130573
0.000130945
0.000135418
0.000140851
0.000119484
0.000121707
9.19494e-05
9.06983e-05
9.25146e-05
9.68748e-05
0.000124862
0.000122721
0.000127221
0.000130433
0.000127947
0.000118767
0.000132714
0.000138468
0.000121526
0.000113863
0.000101869
0.000101894
9.95854e-05
9.78822e-05
9.49965e-05
9.8134e-05
0.000100564
0.000101
9.5102e-05
9.11803e-05
8.23105e-05
8.34984e-05
6.92093e-05
7.1815e-05
5.84712e-05
5.26413e-05
6.24939e-05
3.45624e-05
3.31364e-05
-1.36188e-06
1.08145e-06
-1.14027e-05
8.37117e-06
1.51328e-05
2.66521e-05
2.40599e-05
3.39768e-05
3.42126e-05
4.5512e-05
4.62817e-05
4.34998e-05
3.27057e-05
4.01739e-05
3.78289e-05
4.49913e-05
4.69787e-05
3.41265e-05
3.35095e-05
3.43606e-05
3.55428e-05
4.03066e-05
4.10934e-05
4.52101e-05
4.26386e-05
4.53308e-05
4.7563e-05
4.7969e-05
4.87636e-05
4.71379e-05
4.69488e-05
4.40072e-05
4.37116e-05
3.28274e-05
3.4301e-05
3.94572e-05
3.96843e-05
2.88733e-05
3.05107e-05
1.84151e-05
1.15201e-05
1.87324e-05
1.87486e-05
1.69891e-05
1.88658e-05
2.77281e-05
2.55824e-05
2.59768e-05
2.61426e-05
2.34576e-05
2.25401e-05
1.01167e-05
1.03488e-05
3.04408e-05
2.67554e-05
3.90494e-05
4.10757e-05
5.0395e-05
4.50913e-05
6.15862e-05
6.3973e-05
5.07003e-05
4.97458e-05
5.40219e-05
5.79715e-05
5.00823e-05
5.24219e-05
8.28166e-05
8.57661e-05
7.70566e-05
7.637e-05
8.19295e-05
8.09958e-05
9.32775e-05
9.26477e-05
7.06665e-05
7.34309e-05
6.96938e-05
5.75533e-05
4.8746e-05
4.11809e-05
3.332e-05
3.31112e-05
2.655e-05
2.63392e-05
2.20046e-05
2.21447e-05
2.3426e-05
2.46204e-05
7.2084e-06
9.0637e-07
9.96497e-06
9.92795e-06
1.92718e-05
1.79245e-05
1.39008e-06
7.78316e-06
5.3535e-07
-7.25702e-07
2.76523e-06
7.51961e-06
2.80591e-06
1.18371e-06
-1.62873e-06
-3.03771e-06
-2.01205e-06
-4.44703e-06
-1.21445e-06
-3.64985e-06
-1.24009e-05
-5.45651e-06
-4.21035e-06
-5.64378e-06
-3.01469e-06
-7.64386e-06
-6.36086e-06
-1.29295e-06
-2.25197e-06
-4.53145e-06
-3.82546e-06
-1.39881e-06
-2.48201e-06
-5.16607e-06
-1.43099e-06
-2.40541e-06
3.78052e-07
4.81652e-06
6.26843e-06
2.22798e-06
-6.71656e-07
5.78964e-06
1.19392e-05
2.29532e-05
2.13203e-05
1.36544e-05
1.40794e-05
-1.40243e-06
9.57179e-06
1.27134e-05
2.24774e-05
2.19247e-05
4.13591e-05
4.05168e-05
4.81905e-05
5.12128e-05
5.74893e-05
5.4982e-05
4.90624e-05
4.37918e-05
9.85213e-05
9.4227e-05
8.13921e-05
8.19655e-05
9.59249e-05
9.68792e-05
6.48492e-05
6.8997e-05
6.89603e-05
5.30653e-05
4.17157e-05
3.24182e-05
2.78112e-05
2.37161e-05
1.64342e-05
1.6623e-05
6.19474e-06
4.33751e-06
5.99525e-06
1.56834e-05
5.73417e-06
2.33688e-06
1.86308e-06
-1.30808e-06
1.2322e-06
2.40866e-06
1.84968e-06
-1.12446e-06
-4.98773e-06
6.4455e-07
-4.47751e-07
3.08499e-06
-1.07529e-06
-6.0351e-06
-8.72734e-07
-4.24654e-07
-1.71019e-05
-4.61021e-06
-5.48171e-06
-8.18959e-06
-2.61001e-06
-3.03023e-06
7.51615e-07
-2.93881e-06
2.28637e-06
-6.27378e-06
-1.58106e-06
-7.62409e-07
-4.38142e-06
-1.54384e-05
-2.86977e-05
-4.19423e-06
6.43692e-07
-2.88062e-05
-1.4379e-05
-3.74328e-06
-4.97993e-06
-7.23487e-06
-4.63563e-06
-1.30976e-05
4.50084e-05
1.88424e-05
8.71039e-06
9.65852e-06
2.79394e-05
3.40416e-05
2.45158e-05
2.34515e-05
3.59438e-05
3.35245e-05
3.54127e-05
1.67073e-05
9.61075e-05
3.65221e-05
2.57397e-05
1.60108e-05
1.71577e-05
4.86785e-05
-1.32377e-05
2.03477e-05
5.79667e-05
2.00419e-05
1.79323e-05
8.00577e-06
6.71583e-05
5.96617e-05
3.73668e-06
-2.57216e-05
3.04149e-05
1.36953e-05
3.03252e-05
1.59381e-05
1.28756e-05
1.04452e-05
8.32752e-06
1.01513e-05
1.49138e-05
7.47879e-06
8.81077e-06
1.89134e-05
-2.96444e-06
1.18238e-06
2.1683e-06
5.51251e-07
-5.12331e-06
1.1081e-06
1.04818e-06
-4.20892e-06
-2.86743e-06
-1.42742e-06
3.49366e-07
2.00408e-06
-2.98801e-05
-8.99423e-06
-6.86259e-06
-2.50698e-05
9.93433e-06
2.67725e-06
-3.04842e-06
1.10039e-06
1.23271e-05
3.35855e-06
-3.57147e-06
-1.32583e-06
-1.81e-06
-1.37495e-05
5.21129e-05
4.62838e-05
3.79188e-06
3.98695e-06
3.89146e-05
3.79114e-05
-2.68363e-06
-1.66466e-05
6.70249e-05
6.35614e-05
3.57757e-05
3.31174e-05
5.23778e-05
5.01696e-05
7.89611e-05
8.53267e-05
6.20248e-05
6.74894e-05
6.74554e-05
7.09054e-05
7.38099e-05
5.20693e-05
3.40542e-05
2.17727e-05
1.01639e-05
1.29732e-05
1.10918e-05
1.13537e-05
8.40795e-06
3.6388e-06
2.7388e-06
7.29141e-06
1.69745e-05
1.23197e-06
1.9269e-06
4.5029e-07
-3.84263e-06
6.29523e-06
3.41405e-06
-1.93541e-06
-8.02376e-06
-3.73083e-06
-4.18435e-07
1.61896e-07
-5.8736e-06
-2.68997e-05
-6.7559e-06
2.95676e-06
7.40423e-06
3.81903e-06
2.70219e-06
-3.9088e-06
-4.67235e-06
-2.71056e-06
-9.95599e-06
4.65044e-05
3.46966e-05
9.54824e-06
2.24844e-06
8.19109e-05
7.34481e-05
4.49588e-05
4.02713e-05
5.16386e-05
5.04601e-05
6.29041e-05
6.69813e-05
8.19348e-05
7.4892e-05
7.01235e-05
4.80266e-05
2.49739e-05
1.3517e-05
6.15585e-06
1.0233e-06
5.66809e-07
1.69239e-05
5.85013e-06
-2.0501e-06
-6.82562e-06
-2.9586e-06
-1.794e-06
-9.91067e-07
-6.82633e-07
1.55988e-06
2.59379e-06
-5.91481e-06
-3.24172e-05
7.0332e-06
5.25389e-06
-4.38227e-06
-4.8573e-06
-2.61164e-06
-1.41746e-05
3.15731e-05
2.6576e-05
4.92836e-05
4.61265e-05
1.30075e-05
1.58494e-05
3.70721e-05
4.10307e-05
4.01522e-05
2.72393e-05
1.30493e-05
1.34927e-05
-2.83798e-05
-4.31687e-06
6.26628e-06
8.72945e-06
-1.31055e-05
-1.91762e-06
-4.17004e-06
-2.5585e-06
-2.45109e-06
-1.63938e-05
-7.0708e-06
-3.85201e-06
-4.09674e-06
-2.81198e-06
-1.98709e-05
-1.29938e-05
9.41854e-06
2.23169e-05
3.0307e-05
2.84297e-05
7.3612e-06
5.20243e-06
1.11356e-05
1.167e-05
1.61729e-05
1.19087e-05
4.82843e-05
4.47721e-05
4.22077e-05
4.69405e-05
0.000120744
0.000111946
7.87508e-05
7.63829e-05
8.38552e-05
8.98178e-05
0.000116941
0.000116023
0.000129249
0.000124267
0.000111241
8.99656e-05
6.84297e-05
4.92222e-05
3.35306e-05
1.73115e-05
9.61495e-06
1.17223e-05
2.36402e-07
1.35603e-06
2.60988e-06
3.15598e-06
2.38277e-05
7.88476e-06
8.87761e-06
2.68073e-05
-5.81955e-07
-1.45536e-06
-5.30898e-07
1.26453e-06
1.6261e-07
2.16101e-06
2.11121e-06
-1.46842e-06
-3.02474e-05
-4.42271e-06
6.84995e-06
8.16465e-06
6.31373e-06
6.67788e-06
5.76666e-06
3.2151e-06
-2.13148e-05
-2.22271e-05
-4.46734e-06
-1.9447e-06
-2.45542e-06
-2.65456e-06
-1.87152e-05
-1.93057e-05
3.89633e-05
2.62289e-05
-1.1925e-05
-8.37034e-06
-1.65757e-05
-1.59151e-05
1.53645e-05
2.26279e-05
6.56732e-05
5.60063e-05
1.16975e-05
1.60695e-05
2.96024e-05
2.17761e-05
4.24483e-05
5.11426e-05
5.07403e-05
5.05978e-05
7.79658e-05
8.40535e-05
7.16588e-05
7.36623e-05
0.000112151
0.000120506
0.000119531
0.000117293
0.000125544
0.000124541
0.000126025
0.000128151
0.000140836
0.000144479
0.000162444
0.000150228
9.58207e-05
8.57348e-05
8.46658e-05
8.71253e-05
9.50135e-05
9.66827e-05
0.000109707
0.000101551
9.83883e-05
7.32932e-05
4.9597e-05
3.18043e-05
2.11101e-05
1.14108e-05
1.1602e-05
9.96019e-06
8.11958e-06
8.73218e-06
1.76143e-05
7.68325e-06
2.32933e-06
1.85441e-06
3.80643e-06
3.21829e-06
3.82351e-06
5.05632e-06
4.86777e-06
3.39929e-06
3.29811e-06
5.44546e-06
2.72894e-05
8.79412e-06
-1.58952e-06
-7.99899e-07
1.48118e-07
-5.30937e-07
-3.21493e-07
-2.83248e-06
-2.39242e-06
2.414e-06
-4.94758e-06
-3.33814e-05
-2.87481e-05
-4.28208e-06
-2.59405e-06
-2.31916e-05
2.18454e-06
5.58587e-07
-3.04944e-06
-2.68278e-06
-1.26912e-06
-3.94721e-06
3.71476e-06
9.71629e-06
9.31569e-06
1.37142e-05
4.1044e-05
4.93671e-05
6.10583e-07
5.54278e-06
6.57846e-06
1.27057e-07
3.31734e-05
4.03256e-05
9.24999e-05
7.99321e-05
3.61536e-05
3.71141e-05
6.21647e-05
5.44377e-05
5.31729e-05
5.60233e-05
0.000127275
0.000112504
7.62988e-05
7.87665e-05
8.27623e-05
8.45173e-05
0.000131319
0.00013345
0.000127737
0.000124422
0.000161223
0.000169612
0.000158995
0.000158397
0.000162847
0.000157856
0.000188104
0.000183858
0.000200151
0.000210052
0.000205483
0.000196012
0.000181444
0.000150009
0.000119705
8.91744e-05
6.1373e-05
4.05863e-05
2.73745e-05
2.05197e-05
1.81581e-05
1.86382e-05
1.9705e-05
2.01025e-05
1.81941e-05
1.84719e-05
1.01952e-05
7.6258e-06
9.14866e-06
1.63598e-05
9.6252e-06
6.02466e-06
6.8927e-06
1.16884e-05
7.88952e-06
6.28828e-06
8.51056e-06
1.88536e-05
1.9688e-05
9.10617e-06
9.02172e-06
1.9611e-05
5.45877e-06
3.83938e-06
3.12415e-06
5.22265e-06
5.18045e-06
2.11267e-06
7.64228e-06
2.58989e-05
-3.03547e-06
-1.91531e-06
-3.44744e-06
-8.58985e-06
-6.68797e-06
-2.60526e-07
3.0202e-06
1.04068e-06
-2.77236e-06
1.82119e-06
1.40033e-06
-1.94453e-06
-5.63088e-06
-5.18825e-06
1.97378e-05
8.2078e-06
1.41571e-05
-6.87488e-06
1.78151e-05
2.29099e-05
5.05513e-06
-2.48344e-06
3.4488e-05
3.5034e-05
9.01072e-05
8.84419e-05
3.59641e-05
3.48046e-05
3.67582e-05
3.7421e-05
6.92269e-05
6.41498e-05
0.000110666
0.000123829
7.19339e-05
6.84872e-05
7.01477e-05
7.31869e-05
6.32319e-05
5.96515e-05
8.78952e-05
9.79099e-05
0.000160181
0.000142195
0.000110015
0.000108082
0.0001398
0.000129606
0.000149863
0.000154156
0.000194438
0.000185902
0.000183903
0.000183091
0.000180592
0.000182925
0.000212983
0.000223124
0.000212896
0.000211314
0.000206672
0.00020069
0.00020766
0.000204815
0.000238373
0.000235675
0.00025328
0.000250929
0.000230834
0.000241702
0.000151325
0.000155232
0.000153418
0.000146145
0.000145067
0.000146368
0.000168738
0.000167351
0.000181356
0.000180151
0.0001733
0.000183612
0.0001069
0.000110796
0.00010017
9.89969e-05
0.000121727
0.000121051
0.000127677
0.000130906
0.000115291
9.22093e-05
6.84723e-05
5.01585e-05
3.78907e-05
2.71649e-05
2.1216e-05
1.82432e-05
1.49503e-05
1.72134e-05
4.10776e-06
4.92219e-06
4.48905e-06
4.83939e-06
6.52433e-06
4.92331e-06
6.85926e-06
5.94699e-06
6.09438e-06
5.71335e-06
6.20391e-06
1.01072e-05
7.59451e-06
5.35076e-06
9.34826e-06
1.6746e-05
8.91416e-06
7.18229e-06
5.54889e-06
7.00588e-06
6.88273e-06
5.64319e-06
5.90615e-06
7.42428e-06
1.12829e-05
7.90468e-06
9.25203e-06
1.64309e-05
1.10413e-05
6.65283e-06
7.39853e-06
1.25585e-05
9.05625e-06
6.94962e-06
6.69413e-06
8.81991e-06
7.63197e-06
5.75479e-06
8.09088e-06
1.87e-05
1.67314e-05
6.41799e-06
1.30218e-06
3.76473e-06
4.05591e-06
-1.03768e-06
6.17623e-06
2.58943e-05
3.79424e-07
4.09349e-07
-2.42707e-06
-1.59885e-05
-3.79593e-06
-1.91154e-07
3.82406e-07
-4.42678e-06
-1.78064e-05
-8.32183e-06
-3.60522e-06
-3.16558e-06
-5.29443e-06
-6.39417e-06
-5.39633e-06
-2.72056e-05
9.10587e-06
2.14081e-05
3.1527e-05
3.24059e-05
4.1413e-06
1.00046e-05
2.6907e-05
2.13295e-05
6.75124e-05
6.074e-05
4.00012e-05
3.84483e-05
6.88605e-05
6.62982e-05
8.98432e-05
9.50554e-05
6.8118e-05
6.67117e-05
9.91663e-05
0.000102686
0.00015637
0.000144429
9.45517e-05
0.000100386
0.000101796
0.000101146
0.000133766
0.000139954
0.000115589
0.000113238
0.00017452
0.000183961
0.000169235
0.000167658
0.000262055
0.000279546
0.000221591
0.000225565
0.00022484
0.000224387
0.000265047
0.000249747
0.000253713
0.000255079
0.000247157
0.00024307
0.000282553
0.000291558
0.000288476
0.000289552
0.000275022
0.000273881
0.000305359
0.000308159
0.000328704
0.000330057
0.000327394
0.00031304
0.000301126
0.000251244
0.000198836
0.000145139
9.85428e-05
6.43516e-05
4.21555e-05
2.96765e-05
2.41328e-05
2.30327e-05
2.41951e-05
2.57174e-05
2.61751e-05
2.49633e-05
2.27512e-05
1.8948e-05
1.88594e-05
2.21162e-05
2.12389e-05
1.31084e-05
1.342e-05
1.32878e-05
1.37538e-05
1.30822e-05
1.15077e-05
3.5597e-06
7.79168e-06
9.324e-06
7.88192e-06
5.80921e-06
4.48817e-06
3.26479e-06
7.06765e-06
5.87792e-06
3.92237e-06
5.17794e-06
2.93857e-06
1.03446e-05
7.43731e-06
7.94685e-06
8.26527e-06
5.9823e-06
4.59756e-06
3.82983e-06
6.84152e-06
1.19271e-05
1.45599e-05
1.61984e-05
1.57388e-05
1.35839e-05
1.01552e-05
7.06531e-06
7.73864e-06
2.58972e-05
2.15921e-05
1.86262e-05
2.48249e-05
1.60456e-05
1.70169e-05
2.06166e-05
1.81238e-05
9.70731e-06
1.11229e-05
1.23254e-05
1.23006e-05
7.85812e-06
8.5495e-06
5.27037e-06
3.06227e-06
3.9732e-06
4.37014e-06
7.89443e-06
6.84074e-06
7.94746e-06
5.82535e-06
1.33969e-05
7.28788e-06
7.17128e-06
1.25342e-05
1.11717e-05
7.31034e-06
7.46943e-06
1.09186e-05
6.4727e-06
5.53454e-06
7.04534e-06
1.08821e-05
1.54807e-05
8.33622e-06
4.83462e-06
7.69805e-06
1.21785e-05
7.12805e-06
5.58457e-06
8.72746e-06
3.17262e-06
3.70142e-06
3.49662e-06
3.98587e-06
-1.02684e-06
1.27369e-06
4.34177e-06
1.26889e-05
-1.02178e-06
-1.6924e-06
-1.90875e-06
2.36869e-06
-7.57641e-06
-3.99219e-06
-3.83186e-06
-8.93817e-06
-3.04373e-05
-7.00257e-06
-8.23559e-06
-2.04305e-05
-1.52246e-06
-1.52538e-06
-6.31619e-06
1.60569e-06
1.15942e-06
-1.24724e-05
-1.0746e-05
-4.93786e-06
-3.98504e-06
-9.61765e-06
1.22751e-05
1.4899e-05
2.12766e-05
2.70597e-05
3.83122e-05
3.86404e-05
5.86711e-05
5.74167e-05
8.15725e-05
7.81139e-05
6.39852e-05
6.54853e-05
0.000132435
0.000123261
9.19558e-05
9.00338e-05
0.000127754
0.000122102
0.000175302
0.000185784
0.000142207
0.000142601
0.000147372
0.000144697
0.000189147
0.000188683
0.000154398
0.000154403
0.000216238
0.000215954
0.000207514
0.000207034
0.000248474
0.000242521
0.000318723
0.000338422
0.000315313
0.000313781
0.000316762
0.000317969
0.000312843
0.000307123
0.000296831
0.000304786
0.000349299
0.000342855
0.000349535
0.000349198
0.000335308
0.000338328
0.000362373
0.000375225
0.000350841
0.000350713
0.000338006
0.000327583
0.000320551
0.000320889
0.000335121
0.000330619
0.000347207
0.000344096
0.000340772
0.000351817
0.000252377
0.00025712
0.00024802
0.000239484
0.000248682
0.000244227
0.000262845
0.000270632
0.00018366
0.000187595
0.000200283
0.000197994
0.000145753
0.000151473
0.00015343
0.000153079
0.000162558
0.000156204
0.000139719
0.000140673
0.000105253
0.000108269
0.000106962
0.000112814
0.000123429
0.000120853
0.000116874
0.00011482
0.000116637
0.00011609
0.00013349
0.000129325
9.66554e-05
9.47709e-05
9.25348e-05
7.40089e-05
6.0999e-05
4.99562e-05
4.33098e-05
3.68736e-05
3.54553e-05
3.04693e-05
3.18885e-05
2.55093e-05
2.53198e-05
2.20904e-05
2.30362e-05
2.10913e-05
1.99194e-05
1.07346e-05
1.26775e-05
1.2433e-05
1.20074e-05
2.01385e-05
2.05691e-05
7.80835e-06
2.52671e-06
1.29603e-06
2.14246e-06
-1.25335e-06
-6.00413e-07
1.431e-07
1.36743e-06
2.43926e-07
1.17248e-06
-2.9492e-07
3.4365e-06
4.67321e-06
1.40103e-06
7.44117e-07
2.61783e-07
3.63658e-06
3.17803e-06
3.59928e-06
3.61374e-06
2.57781e-06
3.94543e-06
4.73813e-06
5.36719e-06
1.71391e-05
9.38276e-06
6.74387e-06
7.91632e-06
5.28238e-06
5.17966e-06
4.68505e-06
3.48006e-06
7.54017e-06
7.49192e-06
2.63899e-06
3.53126e-06
5.97886e-06
2.12623e-06
2.25862e-06
3.99864e-06
4.47801e-06
3.5677e-06
4.65386e-06
6.09569e-06
8.962e-06
9.04193e-06
3.09295e-06
2.28052e-06
5.14076e-06
2.32241e-06
3.65442e-06
4.81427e-06
1.89959e-06
4.18656e-06
4.98045e-06
8.98446e-06
1.21403e-05
7.06233e-06
2.86295e-06
2.95846e-06
4.57612e-06
2.56016e-06
2.00366e-05
2.14966e-05
1.21019e-05
1.29539e-05
9.04501e-06
5.21256e-06
1.47667e-05
1.52834e-05
2.35546e-05
2.4392e-05
4.38e-06
8.93641e-06
7.71934e-06
6.37468e-06
1.23585e-05
1.46723e-05
1.88281e-05
1.63616e-05
2.73935e-06
7.03077e-06
4.53891e-06
4.61505e-06
9.39525e-06
1.0184e-05
1.1146e-05
9.00485e-06
1.15639e-05
1.18413e-05
6.2696e-06
2.82294e-06
3.98564e-06
5.36659e-06
1.19047e-05
2.3189e-05
5.16836e-06
1.77283e-05
8.34209e-06
-1.30478e-07
1.25245e-05
1.7511e-05
1.54744e-05
1.28417e-05
1.76482e-05
1.15434e-05
1.27485e-05
1.4134e-05
1.56805e-05
1.04795e-05
1.75269e-05
1.44831e-05
8.37421e-06
5.919e-06
5.83058e-06
7.95902e-06
7.29904e-06
5.98225e-06
6.15068e-06
6.4989e-06
1.24357e-05
7.68475e-06
4.81293e-06
4.60285e-06
1.01316e-05
7.29591e-06
6.00315e-06
7.86969e-06
1.16797e-05
6.98055e-06
8.89156e-06
1.25054e-05
1.06281e-05
8.48356e-06
1.50443e-06
-2.94232e-06
-9.15081e-06
-5.44957e-07
-4.05901e-07
-6.59122e-06
7.72176e-06
2.69155e-06
-3.88287e-06
-7.62634e-06
-5.78316e-06
-4.26384e-06
-5.23301e-06
-7.39599e-06
-1.78693e-06
-4.21888e-06
-5.79192e-06
3.25927e-06
-1.04095e-05
-1.04011e-05
-9.37649e-06
-8.30678e-06
-2.25629e-06
-7.01857e-06
1.49738e-06
1.03526e-05
2.23766e-05
1.77692e-05
1.65068e-05
2.32604e-05
6.47346e-05
7.15563e-05
4.85482e-05
4.89141e-05
0.000111169
0.000114251
8.25034e-05
8.64097e-05
0.000104036
0.000108277
0.00015523
0.000145037
0.000136643
0.000133911
0.000169624
0.000162348
0.000190446
0.000200084
0.000186475
0.000194366
0.000223187
0.000231405
0.0002116
0.000208619
0.00027074
0.000264966
0.000319046
0.000313773
0.000299904
0.0002956
0.000394537
0.000397006
0.000397259
0.000396135
0.000455208
0.000457508
0.000473257
0.000466551
0.000447567
0.000453607
0.000439532
0.000435708
0.000473275
0.000457783
0.000452757
0.000451
0.000433416
0.000432895
0.000475518
0.000477791
0.000472161
0.000478192
0.000459893
0.000453282
0.000456045
0.000462797
0.000478573
0.000476901
0.000494904
0.000483543
0.00047119
0.000388245
0.000307093
0.000224662
0.00015274
9.82175e-05
6.10944e-05
3.85921e-05
2.70276e-05
2.28839e-05
2.30359e-05
2.49242e-05
2.66514e-05
2.74157e-05
2.69829e-05
2.64661e-05
2.5236e-05
2.71062e-05
2.71583e-05
2.50585e-05
2.53035e-05
1.62083e-05
1.65127e-05
1.80069e-05
1.75852e-05
2.34694e-05
2.27465e-05
1.83463e-05
1.95233e-05
2.41976e-05
2.27639e-05
2.06216e-05
2.31659e-05
2.30701e-05
2.14268e-05
2.23807e-05
1.50149e-05
1.58071e-05
1.6944e-05
1.75485e-05
2.06609e-05
2.0291e-05
9.65758e-06
1.19787e-05
1.1255e-05
1.13628e-05
1.26629e-05
7.57816e-06
7.02015e-06
9.09102e-06
5.90726e-06
4.15246e-06
4.67942e-06
4.80447e-06
4.40465e-06
5.33947e-06
4.83342e-06
4.84312e-06
7.58917e-06
6.7404e-06
8.25436e-06
9.2369e-06
5.4762e-06
3.65523e-06
4.14664e-06
3.92515e-06
3.88524e-06
3.22668e-06
2.36862e-06
6.51562e-06
1.06058e-05
8.80073e-06
7.82853e-06
9.16176e-06
4.22567e-06
2.08419e-06
3.12336e-06
1.62308e-06
2.4592e-06
5.52473e-06
2.94505e-06
3.96064e-06
8.48537e-06
1.51626e-06
5.31938e-06
7.07913e-06
1.09118e-05
1.28975e-05
8.5576e-06
1.60496e-05
1.32903e-05
1.3138e-05
1.62879e-05
1.25554e-05
1.34334e-05
7.13724e-06
8.04846e-06
8.12274e-06
8.62099e-06
7.82632e-06
8.24282e-06
6.94239e-06
-2.1791e-06
4.8347e-06
6.53818e-06
7.21036e-06
7.31845e-06
2.93273e-07
4.56787e-06
2.28736e-06
4.68142e-06
6.33564e-06
-1.90704e-08
1.29618e-06
1.97685e-06
1.38533e-06
3.08554e-06
1.27851e-06
2.19956e-06
2.00373e-06
4.17171e-07
6.67611e-06
4.79481e-06
5.24907e-06
-4.24569e-06
9.74541e-06
8.06441e-06
6.90641e-06
1.45972e-05
-1.28023e-05
-2.50673e-06
-1.52033e-06
-9.0734e-06
2.87809e-06
9.91675e-07
-5.64371e-06
-1.21013e-05
-6.47625e-07
-4.36395e-06
-3.47058e-06
9.38241e-06
-4.48611e-06
-1.1957e-05
-1.1551e-05
-8.03637e-06
-1.47242e-05
-1.17225e-05
-7.92212e-06
-8.45269e-06
-1.41004e-05
-7.93848e-06
-7.18249e-06
-1.99266e-05
2.21359e-05
1.29773e-05
1.84152e-05
2.67348e-05
-3.78725e-06
-1.2669e-06
-6.01321e-06
-6.20882e-06
8.27421e-05
2.11741e-06
3.85919e-06
1.32026e-05
2.53099e-06
8.95995e-06
1.99743e-05
1.94053e-05
4.28897e-05
4.47469e-05
5.1156e-05
5.42508e-05
7.57314e-05
7.20979e-05
9.49473e-05
9.57164e-05
0.000124232
0.000127462
0.000138364
0.000143884
0.000167855
0.000159508
0.000175468
0.000165905
0.000237941
0.000225692
0.000223819
0.000214584
0.000271247
0.000263923
0.000250381
0.000254758
0.000320744
0.000334346
0.000382874
0.000388151
0.000379002
0.000378671
0.000471775
0.000462443
0.000547539
0.000554351
0.000568737
0.000562402
0.000563954
0.000576157
0.000612743
0.000619483
0.000604921
0.000614791
0.000583711
0.000584744
0.000562319
0.000554197
0.000615971
0.000611314
0.000615027
0.000622626
0.000576037
0.000568143
0.000560923
0.000556598
0.000523228
0.00052786
0.0004791
0.000484898
0.000481479
0.000476667
0.000496363
0.000493845
0.000398526
0.000382695
0.000356958
0.000364939
0.000358526
0.000355025
0.000365809
0.00036718
0.000269226
0.000260999
0.000268372
0.000272461
0.000276458
0.000279824
0.000201657
0.000216632
0.000199607
0.00020267
0.00021689
0.000212251
0.000202065
0.000158897
0.000118791
8.38459e-05
6.18081e-05
4.80719e-05
4.05067e-05
3.65168e-05
3.39626e-05
3.24561e-05
2.96727e-05
2.58485e-05
3.18741e-05
3.12274e-05
1.7172e-05
1.71683e-05
1.7732e-05
1.67343e-05
2.67103e-05
2.73672e-05
1.60974e-05
1.50686e-05
2.02804e-05
2.13916e-05
1.52575e-05
1.54079e-05
1.82939e-05
1.83156e-05
2.06654e-05
2.01611e-05
2.50128e-05
2.52837e-05
1.99647e-05
2.02499e-05
2.21665e-05
2.17574e-05
2.93837e-05
2.89111e-05
2.45904e-05
2.66407e-05
1.94585e-05
2.0315e-05
2.19815e-05
2.2576e-05
2.12808e-05
2.14971e-05
2.66829e-05
2.5849e-05
3.00225e-05
2.85181e-05
2.67544e-05
2.61178e-05
2.20788e-05
2.28898e-05
2.32321e-05
2.1827e-05
2.693e-05
2.68641e-05
1.81241e-05
1.7684e-05
2.17061e-05
2.16285e-05
2.46919e-05
2.49424e-05
2.5854e-05
2.51021e-05
2.53461e-05
2.53803e-05
1.77057e-05
1.73597e-05
2.1169e-05
2.15559e-05
2.24035e-05
2.31171e-05
1.7862e-05
1.67852e-05
1.11145e-05
1.14027e-05
1.01974e-05
1.03047e-05
9.62531e-06
6.84754e-06
1.10952e-05
1.16765e-05
1.04634e-05
8.46391e-06
1.59604e-05
1.46935e-05
1.60605e-05
1.76329e-05
2.05126e-05
1.95572e-05
1.52669e-05
1.50573e-05
2.22594e-05
2.0662e-05
9.05886e-06
7.81816e-06
5.42832e-06
7.7842e-06
1.1469e-05
1.08927e-05
-1.89106e-06
8.57161e-06
1.0421e-05
6.83366e-06
1.26126e-05
1.1721e-05
1.26773e-05
1.25599e-05
9.96497e-08
2.14097e-06
2.70016e-06
3.99673e-06
-2.13795e-06
-2.63909e-06
8.65961e-07
-1.45571e-07
1.36561e-06
1.55741e-06
-9.47649e-07
2.37501e-06
9.58416e-06
1.13878e-05
5.23876e-07
3.81978e-06
2.6547e-06
2.31093e-06
4.47283e-06
3.8446e-06
4.45649e-06
-2.09499e-07
4.1444e-06
1.98548e-06
6.25413e-06
4.49636e-06
5.64035e-06
4.16633e-06
-3.20043e-06
1.74401e-06
4.78401e-06
1.56299e-05
-6.134e-08
1.205e-06
4.38854e-06
1.21853e-05
6.55772e-06
1.095e-05
1.03557e-05
8.56525e-06
-5.25174e-06
1.89915e-06
3.71034e-06
1.06155e-05
1.5092e-05
1.3578e-05
4.28784e-06
-1.38844e-05
-5.96971e-06
-6.51993e-06
-1.00091e-05
-8.94673e-06
-1.17401e-05
-1.72087e-06
-8.44188e-07
-3.00595e-06
-2.48535e-06
-6.93919e-07
4.0062e-06
-9.04597e-06
-7.32915e-06
-7.97965e-06
-1.16528e-05
-2.51891e-05
-7.66383e-06
-4.72397e-06
-2.1122e-05
-1.88904e-05
-1.37957e-05
-9.48944e-06
-4.22142e-06
-8.47087e-06
-9.71594e-06
-1.47405e-05
-1.83732e-05
4.82467e-06
4.12955e-06
1.07023e-05
9.60857e-06
-6.20724e-06
1.9984e-05
1.50801e-05
4.03353e-06
2.90934e-05
-4.30391e-06
-1.36904e-05
4.06609e-05
4.82707e-06
7.74006e-05
4.45272e-05
3.32757e-05
2.83472e-05