/*--------------------------------*- C++ -*----------------------------------*\
  =========                 |
  \\      /  F ield         | OpenFOAM: The Open Source CFD Toolbox
   \\    /   O peration     | Website:  https://openfoam.org
    \\  /    A nd           | Version:  7
     \\/     M anipulation  |
\*---------------------------------------------------------------------------*/
FoamFile
{
    version     2.0;
    format      ascii;
    class       volScalarField;
    location    "9.75";
    object      p;
}
// * * * * * * * * * * * * * * * * * * * * * * * * * * * * * * * * * * * * * //

dimensions      [0 2 -2 0 0 0 0];

internalField   nonuniform List<scalar> 
382612
(
0.00207917
0.0018325
0.00199475
0.00199776
0.00173662
0.00220535
0.0021207
0.00201532
0.00184566
0.00168093
0.00187939
0.00186708
0.00180859
0.00183531
0.00195118
0.00207067
0.00184516
0.00198534
0.00201957
0.00203925
0.00205789
0.00208195
0.00210596
0.00211324
0.00209473
0.00207167
0.00204884
0.00245072
0.00249438
0.00253131
0.002562
0.00235286
0.00234664
0.00233808
0.00232257
0.00223811
0.00195311
0.0020415
0.00210134
0.00213147
0.00215595
0.00217758
0.00209154
0.00207607
0.00205553
0.00202933
0.00194629
0.00196027
0.00198009
0.00199637
0.00215628
0.00214108
0.0021227
0.00210278
0.00207772
0.0019183
0.0019714
0.00205528
0.00211631
0.00200478
0.00207681
0.00194852
0.00196468
0.00261042
0.00201192
0.00186022
0.00211973
0.00232446
0.00242542
0.00255383
0.00257081
0.002573
0.00257403
0.00270658
0.00269724
0.00268486
0.00266079
0.00255747
0.00236002
0.00246002
0.00249907
0.00252548
0.0025441
0.00287338
0.00288061
0.00288905
0.00287431
0.00272626
0.00211464
0.00223703
0.00226701
0.00228153
0.00229113
0.002466
0.0024802
0.00249766
0.00249987
0.00243606
0.00201045
0.00208077
0.00210065
0.00211325
0.00212676
0.00214215
0.00201754
0.00201063
0.00200258
0.00199954
0.00180951
0.001838
0.00185864
0.00187348
0.00212392
0.00210628
0.00208638
0.0020664
0.00204034
0.00169996
0.00181974
0.00185137
0.00186563
0.00187402
0.00203582
0.00201862
0.00199964
0.00197761
0.00191185
0.00165849
0.00184307
0.00196836
0.00199028
0.00199864
0.00200129
0.00220851
0.00221731
0.00222959
0.00224268
0.00235708
0.00233631
0.00220481
0.0021734
0.00215437
0.00214079
0.00189632
0.00188668
0.00187538
0.00186991
0.00198572
0.00199807
0.00200872
0.00201546
0.00200781
0.00200493
0.0019987
0.00199416
0.00203627
0.00195616
0.00188697
0.00188673
0.00189308
0.0018973
0.00183039
0.00198377
0.0020207
0.00170815
0.00187492
0.00181629
0.00209803
0.00230562
0.00178257
0.00180333
0.00213915
0.00174311
0.00181839
0.00179651
0.00172737
0.00172385
0.00173251
0.00173804
0.00223733
0.00224783
0.00226528
0.00228847
0.00229019
0.00196929
0.00192941
0.00191905
0.00191823
0.00191939
0.00223293
0.00224749
0.00227106
0.00230056
0.00232949
0.00200434
0.00211172
0.00211903
0.00211772
0.0021129
0.00210973
0.00193239
0.00193243
0.00193462
0.00194633
0.00165325
0.00165584
0.00166261
0.00166535
0.00198131
0.00198209
0.00198246
0.00198534
0.002022
0.00167927
0.00166958
0.00202651
0.00192511
0.00161472
0.00184525
0.00198219
0.00169672
0.00197338
0.00193959
0.00166173
0.00159407
0.00190295
0.00190851
0.00175331
0.00157757
0.00181088
0.00195099
0.00200836
0.00197821
0.00197069
0.00183585
0.00166617
0.00200537
0.00193092
0.00199296
0.00202381
0.00194158
0.00199157
0.00211428
0.00208798
0.00189133
0.00193784
0.00197413
0.00198462
0.00199756
0.00201121
0.00215836
0.0021562
0.00214803
0.00210818
0.00237053
0.00234617
0.00232769
0.00231071
0.00272487
0.00271487
0.00270555
0.00268249
0.00255042
0.00247363
0.00241119
0.00241471
0.00242595
0.00242915
0.00243491
0.00209999
0.00210216
0.00209761
0.00208415
0.00209199
0.00255007
0.00251256
0.00251504
0.00252423
0.00253237
0.00235844
0.00234498
0.00232332
0.00230643
0.00233079
0.00254113
0.00249455
0.00249375
0.0025074
0.00251867
0.00271604
0.00271656
0.00271653
0.0027077
0.00263809
0.00255449
0.00267706
0.00270611
0.00271853
0.00272575
0.00314075
0.00314702
0.00315515
0.00313791
0.00297
0.00220359
0.00222761
0.00224268
0.00226467
0.00228261
0.00235735
0.00234979
0.00233959
0.00231914
0.00222325
0.00204533
0.00212147
0.00215346
0.00217683
0.0021924
0.00252642
0.00254076
0.00256423
0.00257563
0.00249561
0.0018542
0.00185013
0.00185543
0.00187175
0.00188728
0.00195529
0.00195305
0.00196467
0.00197885
0.00198845
0.00193589
0.00192145
0.00190341
0.00189351
0.00188461
0.00243262
0.00243295
0.00241158
0.0023857
0.00236749
0.0018754
0.00186658
0.00185622
0.00185854
0.00190047
0.00237597
0.00232545
0.00229429
0.00226968
0.0022542
0.00174998
0.00174559
0.00174104
0.00175525
0.00185348
0.00205545
0.00199242
0.00198344
0.00198754
0.00199236
0.00222329
0.00223564
0.00225462
0.00228068
0.00232902
0.00195808
0.00186756
0.00185571
0.00186238
0.00186877
0.00218901
0.00219955
0.00221481
0.00223186
0.00224031
0.00201172
0.00204338
0.00204552
0.00204643
0.00204346
0.00204062
0.00196768
0.00196683
0.0019664
0.00197164
0.00181505
0.00181245
0.00181406
0.00181498
0.00198354
0.00198691
0.00198994
0.00199214
0.00200018
0.00183436
0.0020881
0.00203443
0.00202185
0.00201791
0.00201513
0.00196774
0.00213577
0.00220762
0.00216003
0.00214516
0.00213724
0.00213184
0.00199438
0.00199389
0.00199291
0.00199223
0.00203934
0.00203717
0.00203357
0.00203083
0.00205578
0.00205695
0.00205893
0.00206028
0.00204548
0.00204712
0.00205126
0.00205431
0.00222581
0.00223001
0.00223434
0.00223755
0.0022567
0.00206123
0.0020626
0.00208881
0.00215795
0.0020173
0.00206026
0.00202026
0.0019107
0.0017921
0.00197956
0.00198263
0.00182643
0.00215155
0.0021067
0.00207996
0.00212362
0.00200149
0.00204164
0.00211641
0.00219708
0.00219469
0.00229287
0.00228023
0.00224674
0.00224118
0.00224261
0.00224472
0.0023324
0.00232941
0.0023252
0.00232024
0.0023175
0.00236678
0.00237519
0.00237785
0.00238064
0.00238394
0.00231359
0.0023137
0.00231314
0.00230929
0.00230355
0.00213462
0.0020764
0.00208538
0.00208791
0.0020878
0.00208795
0.00215031
0.00214315
0.00213411
0.00212856
0.00208173
0.00208605
0.00209133
0.00209532
0.0020606
0.00206144
0.0020627
0.00206201
0.00205716
0.00208146
0.00227336
0.00226108
0.00226206
0.00226135
0.0022594
0.0022746
0.00235583
0.00230397
0.00229201
0.00229747
0.00230581
0.00231193
0.00252003
0.00251902
0.00251602
0.0025038
0.00246304
0.00248987
0.00251536
0.00252559
0.00253218
0.0025369
0.00245102
0.00244496
0.00243711
0.0024286
0.00242238
0.00234902
0.00238004
0.00239401
0.0024003
0.00240435
0.00220993
0.00219874
0.00218543
0.00217849
0.00213045
0.00213508
0.0021363
0.0021377
0.00216905
0.00216708
0.00216496
0.00216061
0.00221734
0.0022194
0.00222544
0.00223076
0.00245532
0.00244436
0.00243023
0.00241247
0.00237978
0.00221911
0.00214196
0.00212802
0.00224248
0.00216499
0.00211474
0.00208494
0.00215078
0.00201823
0.00203762
0.00208804
0.00214058
0.0021846
0.00209481
0.00211079
0.00222168
0.00218158
0.00211256
0.00229364
0.00236969
0.0024606
0.00249833
0.00244599
0.00245389
0.00246271
0.00247201
0.00247866
0.002585
0.00257821
0.00256813
0.00255275
0.00252196
0.00254925
0.00258012
0.00259243
0.00259958
0.00260412
0.00251411
0.00251012
0.00250381
0.00249306
0.00247952
0.00246177
0.00247211
0.00247841
0.00248167
0.00248357
0.0024208
0.00241078
0.00239751
0.00238225
0.00235017
0.00221864
0.00223996
0.0022395
0.00223686
0.0022348
0.00230833
0.00229966
0.00228934
0.00227482
0.00222861
0.00215251
0.00210248
0.00211216
0.00211636
0.00211652
0.00211599
0.00213843
0.00213484
0.00213083
0.00213322
0.00218113
0.00218602
0.00219256
0.00219763
0.00213327
0.00213221
0.00213148
0.00213031
0.00212134
0.00217569
0.00215734
0.00209958
0.00209969
0.00214413
0.00210665
0.00207692
0.00208404
0.00211829
0.00221358
0.00212671
0.0020525
0.00206091
0.00212968
0.00206762
0.00231109
0.00262697
0.0022032
0.00210439
0.0023135
0.00246498
0.00255439
0.00257182
0.00255175
0.00253282
0.00244763
0.00248285
0.00249804
0.00250521
0.00250926
0.00258456
0.00257937
0.00257292
0.00256358
0.00253448
0.00253777
0.00256845
0.00257776
0.00258385
0.00258858
0.00254252
0.0025346
0.00252405
0.00251312
0.0025002
0.00253958
0.00257003
0.00258118
0.00258798
0.00259273
0.00254595
0.00254336
0.0025374
0.00252324
0.00248549
0.00236822
0.00236335
0.00236794
0.00237517
0.00238109
0.00243945
0.00243757
0.00243515
0.00242915
0.00240594
0.00229324
0.0022909
0.00229565
0.00230103
0.00230462
0.00218572
0.00218178
0.00217695
0.00217296
0.00216916
0.00210972
0.00208675
0.00209439
0.00209734
0.00209715
0.00209541
0.002117
0.00211355
0.00210892
0.00210592
0.00209395
0.00209534
0.00209839
0.00210175
0.00206875
0.00206902
0.00206735
0.00206277
0.00206089
0.00210096
0.00218715
0.00217992
0.00218366
0.00218877
0.00219302
0.00214008
0.00213609
0.00213092
0.00212723
0.00213125
0.0020573
0.0020445
0.00205547
0.00205905
0.0020606
0.00206248
0.00208026
0.00207507
0.00206875
0.00206359
0.00208486
0.00208536
0.00208644
0.00208747
0.00208297
0.00208092
0.00208082
0.00208042
0.0020733
0.00208364
0.00207798
0.002052
0.00207272
0.00206812
0.00200421
0.00201591
0.00210106
0.00212648
0.00214913
0.00209033
0.00206292
0.00203239
0.00207908
0.00206913
0.00197388
0.00187162
0.00209985
0.00207043
0.00212997
0.00216844
0.00230197
0.00216843
0.00218053
0.00233635
0.00210521
0.00206676
0.00213994
0.00228309
0.0022051
0.00211643
0.00210238
0.0022354
0.00227842
0.00213741
0.00209158
0.00210333
0.00233971
0.00233227
0.00238387
0.002389
0.00239534
0.00238576
0.00238409
0.00238503
0.00238645
0.00238115
0.0023794
0.0023782
0.00237924
0.00237698
0.00246421
0.00248399
0.00248936
0.00249356
0.00249711
0.00241665
0.00241438
0.0024096
0.00239813
0.00237215
0.00230598
0.002303
0.00230351
0.00230668
0.00231026
0.0024108
0.00240576
0.00239997
0.00239232
0.00236836
0.00237966
0.00240399
0.00241285
0.00242003
0.00242609
0.00251735
0.00251278
0.00250575
0.00248984
0.00244896
0.00236217
0.00238056
0.00239339
0.00240126
0.00240592
0.00249392
0.00248866
0.0024827
0.00247688
0.00245967
0.00245679
0.00246463
0.00246888
0.00247285
0.00247595
0.00239184
0.00238967
0.00238807
0.00238702
0.00237533
0.00232901
0.00231868
0.00231572
0.00231687
0.00231847
0.00223149
0.00222666
0.00222079
0.00221872
0.00223252
0.00225368
0.00226886
0.00227149
0.00227111
0.00227114
0.00216271
0.00216482
0.00216659
0.00216695
0.00216042
0.00215894
0.00217345
0.00217309
0.00216954
0.00216623
0.00204409
0.0020401
0.00203569
0.00203494
0.00206621
0.00207127
0.0020741
0.00207665
0.00206679
0.00206289
0.00205802
0.0020508
0.00204292
0.00204255
0.00204041
0.00204516
0.00205027
0.00205401
0.00207149
0.00207209
0.00207226
0.00207247
0.00207227
0.00205438
0.00205084
0.00205001
0.00204994
0.00204967
0.00201454
0.00201084
0.00200576
0.00200192
0.00202137
0.00202606
0.0020299
0.00203378
0.00210503
0.00210131
0.00209948
0.00209724
0.00206821
0.00206563
0.00206748
0.00207007
0.00209195
0.00209617
0.00210213
0.0021087
0.00211425
0.00207979
0.0020911
0.00207235
0.00204684
0.00188768
0.00197052
0.00209298
0.0020398
0.00199496
0.00204076
0.00208077
0.00208031
0.0018067
0.00196248
0.0019509
0.00176858
0.00186031
0.0019435
0.00199983
0.00195631
0.00207449
0.00205157
0.002104
0.00218995
0.00231436
0.0021477
0.00210032
0.00216581
0.00216134
0.00211627
0.00200864
0.00198715
0.00193763
0.00219946
0.00243311
0.00259802
0.00267136
0.00263805
0.00250255
0.00230164
0.00207508
0.0018676
0.00173488
0.00178392
0.0017966
0.00179568
0.00179272
0.00191587
0.0019087
0.00190091
0.00189632
0.00189124
0.00210369
0.00216941
0.00218556
0.00218674
0.00218538
0.00226845
0.00225973
0.00224974
0.00224276
0.00222671
0.00216336
0.00221385
0.00222647
0.00223158
0.00223494
0.00219799
0.00219687
0.00219251
0.00217976
0.00213525
0.00232081
0.00232975
0.00233349
0.00234117
0.00234838
0.00228257
0.00228216
0.00227865
0.00226485
0.00221848
0.00214404
0.00215162
0.00215682
0.00216034
0.00216181
0.00230275
0.00229895
0.0022962
0.00229814
0.00230422
0.0022739
0.00226699
0.00227188
0.00227804
0.00228252
0.00227592
0.00227432
0.00227048
0.00226323
0.00225754
0.00221177
0.0022289
0.00223532
0.00223682
0.00223673
0.00214712
0.00214482
0.00214202
0.00214155
0.00214722
0.00221548
0.00220405
0.00219767
0.00219424
0.00219275
0.00210918
0.00210469
0.00210006
0.00210192
0.00212926
0.00209848
0.00208571
0.00208769
0.00209186
0.0020947
0.00211855
0.0021233
0.00213111
0.00214055
0.00214313
0.00202016
0.00200719
0.00200918
0.00201196
0.00201355
0.00198253
0.00198025
0.00197677
0.00197516
0.0019895
0.00200325
0.00199847
0.00199884
0.0019992
0.00199836
0.00203599
0.00203218
0.00202685
0.0020225
0.00202287
0.00197275
0.00200175
0.00201101
0.00202122
0.0020312
0.00203971
0.00201347
0.00200613
0.00199524
0.001983
0.00200373
0.00200466
0.00200697
0.00200871
0.00204568
0.00204361
0.00204152
0.00203733
0.00202862
0.00201349
0.00205841
0.00208317
0.00207368
0.00201592
0.00192017
0.00202706
0.00197756
0.00184193
0.0019938
0.0020273
0.00187784
0.00167348
0.0017673
0.00195093
0.00185749
0.00164682
0.00181515
0.00188157
0.00192836
0.00191486
0.00194121
0.00196629
0.00200249
0.00195388
0.00162727
0.00183978
0.00184931
0.00163812
0.00162025
0.00166582
0.00172605
0.00188724
0.00205171
0.00217269
0.00221999
0.00216997
0.00202785
0.00181691
0.00158129
0.00135998
0.0012549
0.00130529
0.00131254
0.00130785
0.00130241
0.00142299
0.00141669
0.00141062
0.00140774
0.00140034
0.00168191
0.00173254
0.0017428
0.00174009
0.00173517
0.00186419
0.0018564
0.00184793
0.00184448
0.00184351
0.00202489
0.00203192
0.00203622
0.00204154
0.00204564
0.00194522
0.00194024
0.00193623
0.0019395
0.00194366
0.00210425
0.00208277
0.00207813
0.00208158
0.00208585
0.0020116
0.00200951
0.00201053
0.00201996
0.00202748
0.00212914
0.00209685
0.00208422
0.00208265
0.00208374
0.0020879
0.00208642
0.00208395
0.00208322
0.00209655
0.00223549
0.00223446
0.00222815
0.00222567
0.00222604
0.00217596
0.00217534
0.00217603
0.00218435
0.00221735
0.00214127
0.00214045
0.00213239
0.00212872
0.00212758
0.00211711
0.002119
0.00212341
0.00213354
0.00214895
0.00207814
0.00206601
0.00206451
0.00206604
0.00206746
0.00211952
0.00211928
0.00211848
0.00211639
0.00211009
0.00214482
0.00210514
0.00215639
0.00214961
0.00207975
0.00207568
0.00207876
0.00208133
0.0020821
0.00202099
0.0020194
0.00201821
0.0020223
0.00204587
0.0019955
0.00199093
0.00199374
0.00199443
0.00199406
0.00198578
0.00198435
0.00198192
0.00197956
0.00198821
0.00198738
0.00199174
0.00199288
0.0019926
0.00199219
0.00195221
0.00195294
0.00195408
0.00195834
0.00197837
0.00214082
0.00213527
0.00212043
0.00210943
0.00210336
0.00207893
0.00208219
0.00208902
0.00210552
0.00215682
0.00206456
0.00208103
0.00207335
0.00207067
0.00206933
0.00207033
0.00201508
0.00201675
0.00202054
0.00203261
0.0019519
0.00196271
0.00196828
0.00197165
0.0021003
0.00209701
0.00209308
0.00208331
0.00205592
0.00192757
0.00198777
0.00212305
0.00202286
0.00192336
0.00190912
0.00209052
0.00193314
0.00192491
0.00195655
0.00196738
0.0019692
0.0019684
0.0018797
0.00187922
0.00187756
0.00187638
0.00188385
0.00194339
0.0019779
0.00198134
0.00197966
0.00197737
0.00201851
0.0020258
0.00203218
0.00202721
0.00196977
0.00196184
0.00200974
0.00203293
0.00203984
0.00204478
0.00205105
0.00201089
0.00201337
0.00201404
0.00200637
0.00194031
0.00194814
0.00195778
0.00196429
0.00206742
0.00206076
0.00205258
0.00204066
0.00202346
0.0019559
0.00205176
0.00206146
0.00203236
0.00195489
0.00176594
0.00194145
0.00190247
0.00166185
0.00162334
0.00184833
0.00178433
0.00155098
0.00180267
0.00187576
0.001941
0.00198172
0.00183568
0.00185196
0.00190104
0.00187531
0.00184113
0.00193184
0.00199023
0.00192226
0.00205692
0.00204855
0.00198544
0.00193032
0.00189201
0.00200468
0.00193278
0.00176879
0.00202445
0.0020486
0.00205162
0.00207491
0.00203805
0.00203515
0.00201139
0.00204631
0.00170104
0.00185797
0.00190826
0.00169354
0.00178344
0.00192611
0.00196877
0.00200022
0.00188573
0.00195454
0.00190049
0.00178581
0.00175217
0.00188992
0.00192526
0.00171169
0.00179789
0.00195681
0.00196626
0.00177821
0.00187575
0.00199404
0.00200371
0.00190767
0.00179752
0.00199159
0.00195041
0.0017156
0.00196214
0.00194956
0.00192073
0.00187298
0.00179516
0.00178547
0.00178858
0.00179031
0.00201571
0.00201624
0.00201712
0.00202466
0.00207184
0.00228717
0.00223492
0.00221575
0.00220604
0.00220125
0.00200574
0.00200073
0.00199569
0.00200422
0.0020778
0.00224871
0.00222325
0.00221003
0.00220382
0.00220116
0.00215915
0.00215607
0.00215318
0.00215798
0.00220494
0.00213787
0.00211947
0.00200482
0.00195916
0.00190946
0.00190214
0.00190366
0.00190449
0.00209296
0.00209477
0.00209562
0.00209509
0.00211222
0.00228179
0.00224888
0.00223574
0.00223204
0.00223133
0.00215377
0.00214965
0.00214481
0.00214716
0.00218729
0.00232396
0.0023198
0.00231408
0.00231153
0.00231049
0.00223314
0.0022331
0.00223294
0.00223578
0.00226264
0.00226045
0.00223981
0.00215714
0.00210272
0.00202284
0.00199035
0.00198829
0.00199001
0.00199113
0.00216851
0.00216889
0.00217195
0.00218294
0.00219799
0.00226498
0.00225939
0.00225358
0.00225303
0.00225438
0.00229001
0.00228808
0.00228475
0.00227973
0.00227898
0.00231233
0.00232323
0.00232813
0.00232842
0.00232777
0.00234185
0.00244697
0.00240844
0.00228862
0.00212462
0.00201805
0.00204379
0.00205257
0.00205204
0.00204952
0.00218482
0.00217994
0.00217703
0.00218074
0.00218648
0.00222371
0.00223979
0.00224543
0.00225257
0.00225951
0.00214588
0.00214908
0.00214942
0.00213563
0.00208447
0.00188453
0.00186469
0.00186371
0.0018703
0.00187663
0.00173752
0.00174177
0.00174465
0.00173598
0.00170845
0.00146953
0.0014593
0.00145338
0.00145392
0.00145612
0.00145649
0.00145284
0.00144929
0.00145014
0.00145704
0.00120816
0.00120327
0.00120562
0.00121214
0.00121829
0.00118151
0.00118115
0.00118222
0.00118436
0.00118088
0.00101152
0.000999435
0.00100068
0.00100292
0.00100503
0.000919992
0.000914827
0.000911996
0.000916337
0.000941999
0.00116509
0.00117927
0.00118153
0.00117587
0.00116896
0.00130965
0.00130452
0.00130015
0.00130371
0.0013256
0.00154371
0.00152628
0.00152463
0.00152858
0.0015333
0.0017174
0.00172263
0.0017272
0.00172338
0.00169795
0.00180744
0.00183129
0.00183744
0.00183771
0.00183751
0.00174926
0.00175201
0.0017533
0.00175008
0.00175712
0.00182879
0.00180681
0.00180813
0.0018127
0.0018167
0.00192822
0.00192858
0.00192841
0.00192513
0.00191685
0.00190578
0.0018861
0.0018834
0.00188325
0.00188238
0.00209725
0.00209909
0.0021054
0.00211543
0.0021242
0.00187433
0.00184981
0.00184946
0.00185297
0.00185514
0.00191598
0.00191669
0.00191749
0.00191677
0.001913
0.00191576
0.00189041
0.00188536
0.00188432
0.00188389
0.00203088
0.002036
0.00204609
0.00206314
0.00207608
0.00209326
0.00206067
0.00204761
0.00204194
0.00203926
0.00184544
0.00184285
0.00183883
0.0018357
0.00184735
0.00187277
0.00185993
0.0018611
0.00186311
0.0018641
0.00210523
0.0021151
0.00213228
0.00215621
0.0021593
0.00222185
0.00223882
0.00221975
0.00220309
0.00219314
0.00220845
0.00221106
0.00221785
0.00223044
0.00222904
0.0023138
0.00230099
0.0023004
0.00229977
0.00230136
0.00207845
0.00207401
0.00206779
0.0020634
0.00206443
0.00193131
0.0019442
0.00198601
0.00200335
0.00201906
0.00203205
0.0020672
0.00206427
0.00205865
0.00203571
0.00215626
0.00215591
0.00215633
0.00215783
0.00213943
0.00213109
0.00212513
0.00212303
0.0021381
0.00214635
0.00205908
0.00210794
0.00198589
0.00188326
0.00213384
0.00207343
0.00201673
0.00194492
0.00179566
0.00191626
0.00190093
0.00180705
0.00185413
0.00184388
0.00193543
0.00196563
0.00191101
0.0019529
0.0019785
0.00191982
0.00183797
0.00194926
0.0019141
0.00177288
0.00180819
0.00190083
0.00185608
0.00180126
0.00191251
0.0016388
0.00145677
0.00129901
0.00121547
0.00119177
0.00118463
0.0011569
0.00110016
0.00103098
0.00095424
0.000874026
0.000786625
0.000694949
0.00060012
0.000683959
0.000672539
0.000671549
0.000673587
0.000675345
0.000804437
0.000815379
0.000827242
0.000834271
0.000830406
0.000888963
0.000890593
0.000888054
0.000882771
0.000877775
0.000829653
0.000839421
0.000849381
0.000855259
0.000865734
0.00109752
0.00105214
0.00104059
0.0010413
0.00104492
0.00118868
0.00119704
0.00120446
0.00120423
0.00120662
0.00148613
0.00146313
0.00145086
0.0014496
0.0014505
0.0016482
0.00164667
0.00164913
0.00166357
0.00170322
0.00153843
0.00154405
0.00154431
0.00154302
0.00154107
0.00150242
0.00150656
0.0015091
0.00151068
0.00153238
0.00185844
0.00183734
0.00181959
0.00181285
0.00181116
0.0018829
0.00188368
0.00188814
0.0019052
0.00196187
0.00166765
0.00167485
0.001676
0.00167564
0.00167493
0.00170402
0.00170612
0.00170888
0.0017138
0.00173463
0.00196806
0.00196578
0.00194905
0.00193827
0.00193303
0.00191368
0.00191647
0.00192323
0.00194012
0.00198687
0.00171118
0.00170395
0.00170525
0.00170754
0.00170824
0.00177883
0.00177952
0.00178022
0.00177962
0.00177844
0.00185671
0.00183471
0.00182835
0.00182517
0.00182312
0.00204721
0.00205761
0.00207448
0.00209439
0.00208821
0.00176502
0.00177025
0.00177709
0.00178048
0.00178198
0.00182672
0.00182352
0.00181595
0.00180074
0.0017822
0.00180285
0.00182189
0.0018403
0.00185243
0.00185894
0.00195464
0.00194747
0.00193516
0.00191344
0.00187837
0.00178763
0.0018343
0.00185803
0.00186986
0.00187585
0.00213698
0.00213159
0.0021229
0.00210057
0.00202598
0.0021953
0.00223155
0.00223121
0.00222845
0.00222792
0.00210805
0.00211161
0.00211447
0.00210797
0.0020341
0.00204192
0.0020542
0.00206598
0.00212705
0.00211122
0.00209373
0.00207826
0.00208626
0.00210166
0.00210562
0.00210661
0.00234129
0.00233762
0.0023336
0.0023171
0.00221157
0.0020037
0.00206791
0.00206191
0.00191268
0.0018882
0.00206862
0.00205989
0.00188096
0.00195137
0.00211339
0.00214548
0.00215935
0.0021661
0.00217297
0.0020482
0.00203674
0.00201799
0.00199678
0.00228728
0.00231112
0.00231158
0.00231188
0.00219517
0.00218971
0.00218109
0.00216518
0.00214265
0.00229878
0.00229512
0.0022959
0.0022892
0.00228534
0.00230263
0.00229803
0.0022924
0.00228062
0.00233816
0.00204292
0.00205965
0.00206333
0.00206819
0.00207592
0.00208339
0.00217121
0.00217264
0.00217256
0.00215654
0.00206706
0.00209358
0.00210388
0.00211143
0.0020541
0.00204558
0.00203613
0.00202583
0.00199522
0.00190198
0.00183647
0.00205708
0.00199621
0.0020093
0.00200987
0.00193084
0.00191676
0.00191182
0.00207588
0.00199378
0.00189941
0.00191718
0.00197388
0.00189398
0.00196268
0.00194405
0.00191767
0.00164476
0.00127841
0.000905552
0.000637898
0.000538346
0.000598268
0.000731624
0.000834649
0.000843403
0.000759855
0.000630634
0.000549534
0.000481487
0.000448962
0.000392823
0.000414708
0.000400868
0.000393652
0.000386991
0.000381539
0.000448529
0.000449563
0.000453188
0.000463922
0.000497694
0.000541346
0.000529301
0.000523025
0.000514515
0.00050589
0.000650711
0.000653294
0.000659611
0.000675563
0.000703262
0.000902995
0.000859257
0.000838719
0.000829954
0.000825722
0.00093758
0.000945071
0.000951171
0.000953392
0.000966139
0.0012989
0.00126375
0.00124386
0.00123752
0.00123709
0.00143649
0.00143918
0.00144606
0.00146762
0.00153827
0.00128037
0.0012879
0.00128801
0.0012871
0.00128661
0.00132168
0.00132602
0.0013293
0.00133255
0.00135525
0.00172589
0.00170837
0.00168669
0.00167328
0.00166725
0.00172921
0.00173194
0.00173888
0.0017579
0.00181703
0.00145479
0.00146481
0.00146683
0.00146726
0.00146659
0.00157097
0.00157384
0.00157751
0.00158305
0.00160074
0.00185552
0.00185533
0.00183598
0.00182079
0.00181284
0.00183333
0.00184078
0.00185521
0.0018777
0.00188919
0.0019736
0.00194434
0.00192452
0.00191295
0.00190716
0.00161293
0.00161124
0.00160498
0.00159226
0.00158377
0.00166303
0.00167125
0.00168153
0.00168808
0.00169064
0.00181612
0.00181325
0.00180942
0.00180491
0.00179012
0.0019034
0.00193128
0.00193663
0.00193793
0.00193847
0.00206159
0.00206094
0.00205928
0.00205254
0.00201919
0.00199734
0.00202597
0.0020323
0.00203432
0.0020345
0.00207292
0.00206448
0.00205011
0.0020254
0.00198003
0.00205716
0.00206272
0.00207296
0.0020813
0.00208636
0.00222976
0.00223481
0.00224224
0.00224261
0.00218654
0.00209403
0.0021845
0.00219435
0.0021926
0.00219078
0.00210246
0.0020982
0.00209209
0.00208278
0.00203239
0.0021435
0.00214783
0.0021447
0.00214322
0.00214599
0.00212673
0.00198598
0.00200824
0.00197262
0.00206718
0.00220021
0.00183632
0.00200654
0.00221335
0.00186437
0.00220601
0.00293268
0.0020581
0.00218695
0.00227299
0.00255835
0.00202471
0.00164728
0.00114098
0.000715619
0.000435707
0.000373057
0.000470704
0.000622124
0.000719836
0.000702421
0.000601491
0.000485618
0.000396946
0.000366886
0.000327387
0.000428442
0.000432528
0.000429398
0.00042608
0.000424104
0.000325611
0.000332092
0.000336397
0.000336963
0.000342987
0.000588813
0.000581337
0.000563819
0.000549377
0.000540411
0.000781079
0.00079054
0.000802994
0.000814982
0.00083199
0.000767134
0.000750462
0.000748353
0.000744264
0.000738867
0.00113393
0.00114472
0.00116393
0.00119235
0.00122078
0.00138234
0.00134901
0.00133317
0.00132113
0.00131299
0.00124624
0.0012498
0.00125326
0.00125735
0.00127764
0.00165859
0.00163787
0.00161196
0.0015948
0.00158575
0.00165577
0.00166168
0.00167134
0.00168491
0.00170388
0.00133389
0.00132119
0.00132513
0.0013305
0.00133371
0.00145919
0.00145902
0.00145867
0.00145907
0.00147105
0.00155043
0.00155401
0.00155283
0.00154983
0.00154727
0.00164275
0.00165104
0.00165988
0.00165929
0.00162439
0.00168658
0.00172172
0.0017184
0.00170674
0.0016953
0.00192589
0.00193336
0.00194474
0.00194825
0.00189537
0.00191332
0.00194322
0.00194685
0.0019479
0.00194792
0.00197067
0.00196936
0.00196489
0.00195382
0.00190567
0.00204783
0.00209348
0.0021059
0.00211196
0.00211564
0.00220058
0.0022019
0.00220297
0.00219834
0.00215627
0.00222694
0.00224821
0.00225337
0.00225851
0.00226272
0.0023427
0.00234849
0.00235692
0.00235287
0.00226774
0.00207858
0.00204658
0.00205707
0.00207789
0.00209287
0.00239203
0.00238827
0.00238305
0.00237447
0.00232882
0.00228647
0.00227123
0.00227106
0.00227564
0.002279
0.00225192
0.00225778
0.00226467
0.00225723
0.00218186
0.00202815
0.00214237
0.00215246
0.00214563
0.00213887
0.00227138
0.00227777
0.00228897
0.00228312
0.0021515
0.00189718
0.00192304
0.00193518
0.00194359
0.00194867
0.00208871
0.00209252
0.0020948
0.00208509
0.00204571
0.00204316
0.00194444
0.00193782
0.00204496
0.00206084
0.0019273
0.00198504
0.00199529
0.00199925
0.00200068
0.00206887
0.00207045
0.00207237
0.00207099
0.00201241
0.00197884
0.00200578
0.00195372
0.00192041
0.00191251
0.00194591
0.00196149
0.00196656
0.00190642
0.00196087
0.0019976
0.00197558
0.00197551
0.0021877
0.00207066
0.00201915
0.00207157
0.00202042
0.00199514
0.00195787
0.00187962
0.00190666
0.00197217
0.00202083
0.0020254
0.00206412
0.00204283
0.0020016
0.00198455
0.00197507
0.00198542
0.00204362
0.00210234
0.00205185
0.00202333
0.00198411
0.0019384
0.00191954
0.00198266
0.00201405
0.00200701
0.00196048
0.00198676
0.00198838
0.00194171
0.00193665
0.00197883
0.00194991
0.00192367
0.00191651
0.00195257
0.00194836
0.0018872
0.00188696
0.00197491
0.00192042
0.00186463
0.00193257
0.00194376
0.00198009
0.00202015
0.0019942
0.00196259
0.00193612
0.0019641
0.00198749
0.00192872
0.00195415
0.00200074
0.00194844
0.00195604
0.00194293
0.00195149
0.00204296
0.00196067
0.00198269
0.00207987
0.00187304
0.00184261
0.00165982
0.00144193
0.00117751
0.000925174
0.000838159
0.000881527
0.00117244
0.00126202
0.00153128
0.00166037
0.00168222
0.00169351
0.001702
0.00198944
0.0020047
0.0020219
0.00203084
0.00200512
0.00145727
0.00150338
0.00151124
0.00151175
0.00150863
0.00213061
0.00215038
0.00217584
0.0021899
0.00217651
0.00159311
0.00154413
0.00153903
0.00154189
0.00154255
0.00216923
0.00218901
0.00221862
0.00225055
0.0022439
0.00224798
0.00229354
0.0022931
0.00228102
0.00226983
0.00167671
0.00167864
0.00167662
0.00167168
0.00166143
0.00164004
0.0016661
0.00166257
0.00165899
0.00165595
0.0020294
0.00203844
0.00205136
0.00207253
0.00215576
0.00169867
0.00164276
0.00163778
0.00163991
0.00163921
0.00178558
0.00178765
0.00179104
0.00180084
0.00184575
0.00220002
0.0021157
0.00208806
0.00207612
0.00206925
0.00199347
0.00200099
0.0020153
0.00204283
0.00207638
0.00215006
0.00207058
0.00204906
0.00204212
0.00203917
0.00199986
0.00200351
0.00201366
0.00203684
0.00207953
0.00205092
0.00200819
0.00200268
0.00200485
0.00200755
0.00175853
0.00171703
0.00171246
0.00171264
0.00171143
0.00178432
0.00178497
0.00178451
0.00178685
0.00181286
0.00206143
0.00203064
0.00201041
0.00200156
0.00199905
0.00197779
0.00197512
0.00197512
0.00198946
0.00205684
0.00207987
0.00207854
0.00208209
0.00208247
0.00208146
0.00212273
0.00212263
0.00212221
0.0021194
0.00211119
0.00220401
0.00211762
0.00195194
0.00173639
0.00163222
0.00162798
0.00163043
0.0016277
0.00162325
0.00184217
0.00184308
0.00184684
0.00186356
0.00189848
0.00189726
0.0018786
0.00187126
0.00187212
0.00187452
0.00168511
0.00169046
0.00169542
0.0016917
0.00167889
0.0015052
0.00148479
0.00147295
0.00146907
0.00146802
0.0012304
0.00123017
0.00123365
0.00124838
0.00127886
0.00123399
0.00121642
0.00121046
0.00121071
0.00121221
0.00107425
0.00108313
0.00109224
0.00109491
0.00108967
0.0011433
0.00117566
0.00117538
0.00116438
0.00115337
0.000815847
0.000812932
0.00081129
0.000815517
0.000832738
0.000844945
0.000825928
0.000826206
0.000830912
0.000834595
0.000787024
0.000789105
0.00079213
0.00079747
0.000813542
0.000832544
0.000842099
0.000835541
0.000824635
0.000815791
0.000588023
0.000585803
0.000583781
0.000585306
0.000598131
0.000572289
0.00053786
0.000532169
0.000532769
0.00053393
0.000534512
0.000537817
0.000541866
0.000546653
0.000559647
0.000550473
0.000542297
0.000534509
0.000525413
0.000517617
0.000565251
0.000565468
0.000567812
0.000577671
0.000609801
0.000735711
0.000702913
0.00069242
0.000690521
0.000690413
0.000605254
0.00053023
0.000565644
0.000547905
0.000540402
0.000535038
0.000531026
0.000450715
0.000444873
0.000471369
0.000474241
0.000471106
0.000465439
0.000460361
0.000454249
0.000452583
0.000452272
0.00045779
0.000486302
0.00044255
0.000439752
0.000437135
0.000432997
0.000429313
0.000370629
0.000370235
0.00037031
0.000372624
0.000383763
0.000332034
0.000322054
0.000319465
0.000321036
0.000322905
0.00036424
0.00036623
0.000370043
0.000380174
0.000406613
0.000431305
0.00042194
0.000418011
0.000411496
0.000404925
0.000547365
0.000551207
0.000559776
0.000576659
0.00060176
0.000814703
0.000767894
0.000749774
0.000740151