/*--------------------------------*- C++ -*----------------------------------*\
  =========                 |
  \\      /  F ield         | OpenFOAM: The Open Source CFD Toolbox
   \\    /   O peration     | Website:  https://openfoam.org
    \\  /    A nd           | Version:  7
     \\/     M anipulation  |
\*---------------------------------------------------------------------------*/
FoamFile
{
    version     2.0;
    format      ascii;
    class       volVectorField;
    location    "9.75";
    object      wallShearStress;
}
// * * * * * * * * * * * * * * * * * * * * * * * * * * * * * * * * * * * * * //

dimensions      [0 2 -2 0 0 0 0];

internalField   uniform (0 0 0);

boundaryField
{
    outlet1
    {
        type            calculated;
        value           uniform (0 0 0);
    }
    Wall
    {
        type            calculated;
        value           nonuniform List<vector> 
40276
(
(0.00042746 4.94517e-05 0.000167896)
(-0.000186852 -8.623e-06 0.00041536)
(-0.000190583 -7.86562e-06 0.000407315)
(9.02991e-05 -4.68438e-06 0.00015596)
(7.82194e-05 2.54387e-05 0.000155513)
(8.34823e-05 5.88533e-05 0.000162004)
(9.81354e-05 4.10695e-05 0.00017)
(0.000130457 3.72049e-05 0.000181484)
(0.000100906 2.63634e-05 0.000163321)
(9.82264e-05 6.13035e-06 0.000168995)
(0.000384268 3.80853e-05 0.000406998)
(0.000464466 1.54373e-05 0.000441163)
(0.000585183 3.96945e-05 0.000940634)
(0.000562912 3.77766e-05 0.000870945)
(0.000487579 -1.57821e-05 0.000334341)
(0.000435784 1.51201e-06 0.000363502)
(0.000394098 2.0255e-05 5.62845e-05)
(0.000352108 2.33484e-05 2.29007e-05)
(-0.000113685 -1.17405e-05 -0.000175662)
(-0.000122986 -3.76465e-05 -0.000195864)
(-0.000155922 3.93655e-05 0.00021108)
(-0.00018704 4.442e-05 0.000197912)
(-0.000119972 3.22341e-05 6.76384e-05)
(-0.000138824 2.96418e-05 6.39498e-05)
(-9.99869e-05 2.3693e-05 4.3116e-05)
(-0.000112227 2.47378e-05 3.73386e-05)
(-0.000123945 4.10718e-05 2.19577e-05)
(-0.000121398 4.14924e-05 1.60707e-05)
(-0.000182219 5.88395e-05 3.29224e-05)
(-0.000163585 5.04986e-05 2.39936e-05)
(-0.000120419 3.92463e-05 7.08252e-05)
(-0.000134725 4.70347e-05 7.81947e-05)
(-5.2557e-05 -3.17187e-06 0.000159631)
(-4.68004e-05 -4.85959e-06 0.000148361)
(-6.29077e-05 1.02865e-05 8.14004e-06)
(-6.17476e-05 1.16831e-05 7.68306e-06)
(0.000565385 6.67121e-05 0.000217667)
(0.000614737 4.88978e-05 0.000241698)
(0.00105354 0.000255055 0.000407517)
(0.00119031 0.000326624 0.000428507)
(0.000989747 6.43152e-05 0.000168267)
(0.000951529 3.68343e-05 0.000195574)
(-5.07732e-05 -1.41609e-05 -0.000381372)
(-3.09602e-05 -1.07049e-05 -0.000345099)
(-5.35606e-05 -2.17157e-06 -0.000346887)
(-4.50513e-05 -6.07426e-06 -0.0002844)
(-7.32245e-05 -4.11764e-07 -0.000292443)
(-5.59362e-05 -3.14462e-06 -0.000235423)
(-6.43879e-05 -8.33822e-07 -0.000202028)
(-6.24497e-05 9.9774e-07 -0.000167311)
(-5.10568e-05 -1.12305e-06 -0.000136455)
(-6.28259e-05 1.29072e-06 -0.000143216)
(-5.40848e-05 -1.66277e-07 -0.000113611)
(-5.71737e-05 2.10474e-06 -0.000114964)
(0.00044184 8.14774e-05 0.000262164)
(0.000460133 9.55171e-05 0.000231341)
(-1.65979e-05 1.29095e-05 0.000129933)
(6.41359e-05 2.20353e-05 0.000191135)
(-9.43115e-06 8.30433e-06 0.000132507)
(-0.000446772 -0.000151825 -0.00042751)
(-0.000476095 -0.000126531 -0.000438267)
(1.90676e-05 3.45765e-05 0.000291627)
(-1.27956e-05 -1.1808e-05 0.000225409)
(1.06963e-05 -1.07454e-06 -4.74983e-05)
(1.35275e-05 2.91604e-06 -4.45327e-05)
(6.716e-06 -1.87284e-08 -4.34601e-05)
(2.04605e-06 -2.73803e-06 -4.19254e-05)
(1.17083e-05 5.3363e-08 -4.44355e-05)
(-0.00011518 -1.90374e-05 -0.000104833)
(-0.000126972 -8.6962e-06 -0.000113805)
(-5.15328e-05 4.09299e-06 -9.31984e-05)
(-5.2502e-05 1.07502e-07 -9.4937e-05)
(-1.70997e-05 1.27902e-06 -1.72115e-05)
(-1.70811e-05 1.29689e-06 -1.70493e-05)
(-1.54855e-05 1.35009e-06 -1.67834e-05)
(-1.4627e-05 1.64982e-06 -1.61665e-05)
(-1.66931e-05 7.53804e-07 -1.66021e-05)
(2.42207e-05 -1.80212e-06 -5.09136e-06)
(2.1018e-05 -1.84302e-06 -8.99463e-06)
(-1.23921e-06 4.44073e-06 3.16439e-07)
(-5.28592e-07 -2.33908e-07 2.36129e-07)
(7.48177e-06 -1.17948e-06 -3.88212e-07)
(1.83324e-05 -4.89138e-08 1.25927e-05)
(1.77662e-05 2.12301e-07 1.29193e-05)
(2.84623e-05 -1.29104e-06 2.00372e-05)
(5.86466e-06 5.08566e-07 -3.86055e-05)
(1.41865e-06 -1.89869e-06 -3.6921e-05)
(4.6563e-06 9.79267e-07 -3.38702e-05)
(2.56878e-05 -1.53365e-06 1.85702e-05)
(2.44859e-05 -1.09314e-06 1.76414e-05)
(2.09868e-05 -5.39565e-07 1.56015e-05)
(-4.40971e-05 -4.51782e-06 -3.99104e-05)
(3.8624e-07 -1.18665e-06 -3.24684e-05)
(3.47707e-06 1.29545e-06 -2.98363e-05)
(-3.47162e-07 -5.98886e-07 -2.87533e-05)
(-1.04871e-06 -3.43383e-07 -2.53163e-05)
(-1.6842e-06 5.28332e-08 -2.23339e-05)
(-2.53228e-06 2.18918e-07 -2.02854e-05)
(-5.93952e-06 -3.36244e-07 -1.64097e-05)
(-6.60627e-06 -1.26776e-07 -1.54997e-05)
(-7.44609e-06 8.92269e-10 -1.51174e-05)
(-1.04167e-05 -3.00162e-07 -1.50621e-05)
(-1.06265e-05 -2.1967e-07 -1.54236e-05)
(-4.95184e-05 -9.59468e-07 -4.344e-05)
(-1.08914e-05 -3.07086e-08 -1.62435e-05)
(-1.88513e-05 -3.41882e-06 -2.30096e-05)
(-1.57191e-05 -3.40608e-06 -1.83956e-05)
(-1.07262e-05 -1.28601e-07 -1.67915e-05)
(-1.06264e-05 3.78464e-08 -1.77935e-05)
(-1.02418e-05 -5.77344e-07 -1.81055e-05)
(-1.04239e-05 4.09532e-08 -1.92259e-05)
(-9.87933e-06 -6.37058e-07 -1.99706e-05)
(-9.27896e-06 -2.8345e-07 -2.03766e-05)
(-9.03942e-06 -1.0869e-06 -2.19024e-05)
(-8.6967e-06 -1.7139e-06 -2.05254e-05)
(4.08297e-06 -9.00255e-07 -2.65398e-05)
(3.97128e-06 -2.90037e-06 -2.7861e-05)
(2.53193e-06 -2.91071e-06 -2.62831e-05)
(-0.000277212 -6.29428e-05 0.000486759)
(-0.000280285 -6.14452e-05 0.00044135)
(-1.53579e-05 -1.24477e-06 5.37076e-06)
(-1.26718e-05 -1.41255e-06 6.50867e-06)
(-4.2049e-05 -1.74691e-06 1.6037e-05)
(-3.64762e-05 -3.08932e-06 1.49359e-05)
(-4.39084e-06 -8.06795e-06 -5.43322e-06)
(-2.07989e-06 -7.94746e-06 -2.67268e-06)
(-0.000127312 2.51764e-05 0.000183804)
(-0.000110563 3.38814e-05 0.000156346)
(-0.000160152 -1.79315e-05 0.000274216)
(-0.00013993 -2.39986e-05 0.000236042)
(-0.000102766 -6.25381e-06 0.000172548)
(-8.991e-05 -9.30366e-06 0.000148504)
(-0.000155997 9.35018e-05 0.000465792)
(-0.000216085 0.00016922 0.000650676)
(7.23272e-06 -1.17996e-05 0.000188391)
(-1.44129e-06 -4.54292e-06 0.000159214)
(-0.000102192 2.75905e-05 0.00019279)
(-5.58601e-05 1.36017e-06 0.000167229)
(-0.000179722 -5.75468e-05 0.000489764)
(-0.000179297 -4.07648e-05 0.000490503)
(-0.000179164 -4.55695e-05 0.000524873)
(-0.000194765 -2.18425e-05 0.000526316)
(-0.000559497 1.71114e-06 -0.000151318)
(-0.000642021 2.42768e-06 -0.000183479)
(-2.27552e-05 -7.96789e-05 9.95783e-06)
(-2.65493e-05 -7.89428e-05 1.19239e-05)
(-2.1435e-05 -4.3865e-05 6.54843e-05)
(-2.51996e-05 -5.36533e-05 8.18233e-05)
(-2.90411e-05 -5.25499e-05 6.60839e-05)
(-2.32103e-05 -4.04544e-05 5.3746e-05)
(-1.54684e-05 -8.61463e-05 8.48782e-06)
(-1.98957e-05 -9.83539e-05 6.53327e-06)
(-2.34944e-05 -8.34772e-05 8.81935e-06)
(-2.18821e-05 -8.64849e-05 9.21274e-06)
(-2.31358e-05 -0.000128636 -1.56103e-05)
(-1.99741e-05 -0.000111411 -1.41257e-05)
(-7.64283e-06 -5.66218e-05 -3.31689e-06)
(-9.87871e-06 -5.0537e-05 -4.75771e-06)
(-6.09917e-05 -3.12539e-05 9.45644e-05)
(-5.57794e-05 -3.30795e-05 8.93643e-05)
(9.06329e-05 3.78599e-06 -0.000233576)
(9.87731e-05 -5.14617e-06 -0.000218294)
(-0.000137137 -5.95174e-05 -1.25066e-05)
(-0.00013596 -6.65034e-05 -1.47008e-05)
(-0.000297821 -4.79471e-05 0.000147132)
(-0.000319671 -5.20745e-05 0.00013861)
(-0.000291593 -7.47132e-05 -2.60478e-05)
(-0.000284981 -6.19213e-05 -3.52561e-05)
(-0.000174431 0.000192728 0.000237483)
(-0.000168355 0.000241262 0.000220617)
(-0.000248877 -4.48254e-05 1.3161e-05)
(-0.000131084 -4.67442e-05 -1.84807e-05)
(-0.000206645 -7.74144e-05 7.46395e-05)
(-0.000178043 -7.58356e-05 6.31181e-05)
(-0.000227521 -5.18741e-05 5.87975e-05)
(-6.74098e-05 -4.22637e-05 -7.10722e-06)
(-3.91052e-05 -2.09128e-05 6.0505e-05)
(-3.22256e-05 -1.93908e-05 5.5859e-05)
(0.000538729 -0.000209445 0.000409624)
(0.000496 -0.00018503 0.000342648)
(0.000474296 -0.000261758 0.000227014)
(0.000450582 -0.000195275 0.000257548)
(0.000458484 -0.000225173 0.000256464)
(0.000226305 -0.000141373 0.000184768)
(0.000320314 -0.000199311 0.000215871)
(0.000250414 -0.000144065 0.000199644)
(0.000418073 -0.000185947 0.000346094)
(0.000439359 -0.000227571 0.000328962)
(0.000435458 -0.00022415 0.000287263)
(0.000333497 -0.000218974 0.000188655)
(0.00043775 -0.000270851 0.000188679)
(0.00036469 -0.000197755 0.000242831)
(0.000135163 -6.47213e-05 0.000159569)
(0.000219853 -0.000142633 0.000184444)
(0.000169061 -8.13189e-05 0.000179384)
(0.000124897 -4.91721e-05 0.00016364)
(7.25545e-05 5.09e-05 0.000155382)
(0.000289202 0.000113088 3.90949e-05)
(0.000351009 0.000112175 9.14861e-05)
(0.0003 7.48259e-05 0.000104445)
(0.000317756 5.94253e-05 4.29387e-05)
(0.000378587 6.3337e-05 9.51613e-05)
(0.000342038 9.99975e-05 8.50346e-05)
(0.000307094 7.46817e-05 6.21363e-05)
(9.67391e-05 5.58033e-05 8.11447e-05)
(0.000114406 6.64131e-05 8.11498e-05)
(8.88902e-05 1.41982e-05 0.000134048)
(9.33497e-05 2.03153e-05 0.000132404)
(0.00010566 1.22352e-05 0.000155703)
(8.74726e-05 2.74322e-06 0.000140436)
(9.92399e-05 3.69813e-05 0.000129423)
(7.97578e-05 3.73646e-05 9.81417e-05)
(7.8552e-05 4.12036e-05 7.12472e-05)
(7.23477e-05 2.21703e-05 8.85691e-05)
(6.54154e-05 1.07117e-05 0.00010377)
(5.12052e-05 3.2859e-06 8.23365e-05)
(6.46016e-05 -1.65139e-06 0.000100345)
(5.5651e-05 1.9283e-05 6.89312e-05)
(4.86795e-05 1.7331e-05 5.90716e-05)
(5.20582e-05 1.62268e-05 6.7147e-05)
(0.000154691 9.43289e-05 4.03341e-05)
(0.000187054 0.000104258 6.04599e-05)
(0.000191415 9.4083e-05 7.17591e-05)
(0.000183401 8.88749e-05 4.06241e-05)
(0.000113523 6.85842e-05 6.895e-05)
(0.000131368 7.78916e-05 4.45618e-05)
(0.00014061 8.35096e-05 2.47864e-05)
(0.000143408 7.10482e-05 3.67316e-05)
(0.000124888 6.91114e-05 4.09034e-05)
(0.00027286 0.000112052 3.16784e-05)
(0.000224938 0.00010667 2.91552e-05)
(0.000289827 0.000102822 4.60956e-05)
(0.000263555 7.46048e-05 3.13026e-05)
(0.000235706 9.85558e-05 1.76615e-05)
(0.000215764 7.40853e-05 2.39381e-05)
(8.05505e-05 4.9675e-05 4.80459e-05)
(8.7062e-05 4.72985e-05 5.44598e-05)
(6.93414e-05 3.59114e-05 6.06185e-05)
(0.000106897 6.65269e-05 4.19521e-05)
(5.99861e-05 2.95854e-05 5.35266e-05)
(7.21655e-05 4.5399e-05 3.25474e-05)
(0.000118462 6.49618e-05 5.21425e-05)
(0.000155483 8.13474e-05 2.0679e-05)
(7.75882e-05 5.26475e-05 6.07243e-06)
(9.00382e-05 4.98229e-05 2.43869e-05)
(7.89755e-05 5.17393e-05 1.84448e-05)
(0.00014216 8.4405e-05 4.19697e-06)
(0.000173507 8.77862e-05 -1.78414e-05)
(0.000156972 6.11336e-05 2.01344e-05)
(0.000152359 7.54677e-05 7.2486e-06)
(0.000315504 2.83145e-05 0.000551642)
(0.000353614 5.72313e-05 0.000641255)
(0.000321514 -1.4373e-06 0.00057352)
(0.000333219 2.89489e-05 0.000589696)
(0.000352781 9.8595e-05 0.000390889)
(0.000380663 0.000103574 0.000463671)
(0.000273009 9.37714e-05 0.000381494)
(0.000297578 8.7934e-05 0.000436577)
(0.000294698 0.000106121 0.000439575)
(0.000276026 8.77895e-05 0.000451762)
(0.000390991 0.000156581 0.000503846)
(0.000327621 0.000132373 0.000377886)
(0.000372423 0.000137742 0.000470546)
(0.000237098 8.98442e-05 0.000383333)
(0.000317451 0.000115497 0.000478739)
(0.000403415 0.000128925 0.000379627)
(0.000363046 0.00013449 0.000449415)
(0.000355437 0.000130985 0.000449749)
(0.000410649 0.000135774 0.000560584)
(0.000426036 0.000169764 0.000495294)
(0.000469243 0.000183791 0.000492669)
(0.000462222 0.000192304 0.00046588)
(0.000451321 0.000159288 0.000556468)
(0.000435787 0.000163865 0.000556326)
(0.000393989 7.20087e-05 0.000458829)
(0.000504899 7.74427e-05 0.000490305)
(0.00038719 9.10616e-05 0.000472265)
(0.000300714 9.34044e-05 0.000370391)
(0.000379407 8.9865e-05 0.000461851)
(0.000414568 6.98092e-05 0.000402472)
(0.000311113 5.51763e-05 0.000302675)
(0.000336671 0.000101022 0.00036397)
(0.000360499 8.29654e-05 0.000352285)
(0.000364823 9.3026e-05 0.000344332)
(0.00048682 -4.16329e-05 0.000425396)
(0.000500778 -5.93575e-05 0.000423032)
(0.000511336 -0.000135878 0.000411723)
(0.000400825 -6.2014e-05 0.000367704)
(0.000481833 -0.000116583 0.000324313)
(0.000378916 -9.25007e-06 0.000338568)
(0.000525501 -0.000126536 0.000353291)
(0.000361071 -2.76978e-05 0.000291812)
(0.000465065 -9.69534e-05 0.000284701)
(0.000542381 -0.000204338 0.000270769)
(0.000340588 5.73742e-05 0.000353751)
(0.000340176 8.53789e-05 0.000372191)
(0.000379217 2.47675e-05 0.000310832)
(0.000377186 6.38987e-05 0.000328454)
(0.000394496 0.000141837 0.000375472)
(0.000429406 0.000148118 0.000508282)
(0.000427008 0.000145963 0.000455379)
(0.000440888 0.000126841 0.000369777)
(0.000496775 0.00016197 0.000413837)
(0.000496963 0.000190132 0.000522348)
(0.000447684 0.000158773 0.000521777)
(0.000472673 0.000156091 0.000550593)
(0.000471361 0.000172321 0.000397234)
(0.000451331 0.000158799 0.000523031)
(0.000451503 0.000163998 0.000521538)
(0.000573066 0.000208705 0.000656378)
(0.000546216 0.000195943 0.000512028)
(0.000401099 0.00011642 0.000368178)
(0.000568972 0.000179232 0.000420291)
(0.000451549 0.000104228 0.000392587)
(0.000580628 0.000146689 0.000398974)
(0.000513305 0.00017802 0.000439144)
(0.000517792 0.000162774 0.000510579)
(0.000694443 0.000261671 0.000523516)
(0.000549901 0.000186752 0.000433379)
(0.000524951 0.000159444 0.000456464)
(0.000734653 0.000258504 0.000483894)
(0.000568557 0.000245921 0.000484136)
(0.000604937 0.000209487 0.000591416)
(0.000560109 0.000182399 0.000624589)
(0.0006631 0.000226269 0.000621147)
(0.000660383 0.000231422 0.000599683)
(0.000350522 0.000140815 0.000456026)
(0.000341963 0.000131519 0.000449993)
(0.000235168 7.08305e-05 0.000425315)
(0.000338913 0.000128916 0.000488273)
(0.000426437 0.000121736 0.000632106)
(0.000390082 0.000112168 0.000580179)
(0.000378841 0.000147001 0.000492209)
(0.000398355 0.000155011 0.000511036)
(0.000381454 0.000147989 0.000560438)
(0.000362866 6.26337e-05 0.000648701)
(0.000313519 4.34639e-05 0.000580374)
(0.000368027 0.000109096 0.000608271)
(0.000350775 9.55879e-05 0.000603916)
(0.000313823 4.28144e-05 0.000507941)
(0.000424908 0.000171095 0.000538603)
(0.000449786 0.000139454 0.000628403)
(0.000401254 0.00012287 0.000611576)
(0.000386855 -4.93626e-06 0.000638678)
(0.000476405 0.000144895 0.000711675)
(0.0003582 6.02497e-05 0.000604862)
(0.000464136 0.000187059 0.000524219)
(0.000503013 0.000195873 0.000562405)
(0.000447956 0.000141708 0.000624533)
(0.000438874 0.000176333 0.000559942)
(0.000507174 0.000205386 0.000563497)
(0.000503832 0.00012787 0.000695553)
(0.000514206 0.000145349 0.000783215)
(0.00040993 4.84665e-05 0.00067492)
(0.000376022 4.63051e-05 0.000615565)
(0.000407973 7.81589e-05 0.000649595)
(0.000463315 0.000130251 0.000690653)
(0.000395591 7.48941e-05 0.000607884)
(0.000514651 0.000220225 0.000602563)
(0.000513317 0.000106104 0.000750645)
(0.000593307 0.000191895 0.000853216)
(0.000282539 1.16499e-05 0.000493362)
(0.000293716 5.54545e-05 0.000502104)
(0.0003583 0.000131852 0.000560677)
(0.000377087 8.3777e-05 0.00063872)
(0.000355409 2.61232e-05 0.000589387)
(0.000438301 9.35935e-05 0.000696168)
(0.000336434 -1.2325e-05 0.000568929)
(0.000338426 4.02333e-05 0.000560057)
(0.000431853 0.000143381 0.000678962)
(0.00036048 4.58037e-05 0.000613439)
(0.000315355 3.7006e-05 0.000529183)
(0.000383739 -4.82125e-06 0.000633171)
(0.000333349 4.28394e-05 0.000559831)
(0.000354414 4.58522e-05 0.000584407)
(0.000430806 4.26762e-05 0.00070381)
(0.000336668 8.73845e-05 0.000578937)
(0.000335513 5.98247e-05 0.000565584)
(0.000428096 -5.77741e-05 0.000656266)
(0.000479598 0.000129171 0.000755109)
(0.000412599 -2.14619e-05 0.00069467)
(0.000524829 6.54231e-05 0.000858249)
(0.000400726 1.26807e-05 0.00066955)
(0.000420924 3.54475e-05 0.00068586)
(0.000530274 0.000159891 0.000770162)
(0.000425111 5.34962e-05 0.000679746)
(0.000485912 3.50069e-05 0.000773706)
(0.00052355 4.49863e-05 0.00085796)
(0.00053366 1.91638e-05 0.00085669)
(0.000420944 3.53128e-05 0.000674697)
(0.000476047 4.12354e-05 0.000755347)
(0.000425653 1.46466e-05 0.000675952)
(0.000485635 4.88391e-05 0.000768466)
(0.000548225 0.000176772 0.000684724)
(0.000536493 0.000193397 0.000612229)
(-2.10015e-05 -4.91014e-05 0.000160188)
(0.000567068 0.000155114 0.000775287)
(0.000493298 0.000140744 0.000663685)
(0.000616374 0.000228398 0.000663564)
(0.000575582 0.000222679 0.000599959)
(0.000610834 0.000215547 0.00067355)
(-2.52584e-05 -4.87765e-05 0.000159627)
(0.000544564 0.000173883 0.000710292)
(0.00056462 0.000209414 0.000657347)
(0.000611929 0.00023036 0.00068511)
(0.000556556 0.000169053 0.000764719)
(0.000625855 0.000179086 0.000913036)
(-2.29e-05 -4.85594e-05 0.000156908)
(0.000469665 7.33101e-05 0.000728029)
(0.000433966 6.34628e-05 0.000710953)
(0.000467762 9.75739e-05 0.000706044)
(0.000527307 5.98908e-05 0.000796479)
(0.000464666 0.000107689 0.000703159)
(-2.53694e-05 -3.80729e-05 0.000159921)
(0.000576657 0.000237025 0.0006631)
(0.000595157 0.000121934 0.00083754)
(0.000682436 0.000217255 0.000930442)
(0.000657037 0.000219984 0.000773375)
(0.000715624 0.000252867 0.000647732)
(0.000772285 0.000285142 0.000656068)
(0.000646611 0.000191392 0.000833246)
(0.000605085 0.000176256 0.000745437)
(0.000634304 0.000258187 0.000626733)
(0.000668078 0.000237827 0.0006787)
(0.000642594 0.000204244 0.000758922)
(0.00071227 0.000245734 0.000809631)
(0.000737213 0.000283632 0.00077586)
(0.000657928 0.000205051 0.000836655)
(0.00068521 0.000172096 0.000940799)
(0.000562223 0.000138306 0.000783177)
(0.000626035 0.000139742 0.000974115)
(0.000509611 0.000105374 0.000751851)
(0.000587333 8.08621e-05 0.000888853)
(0.000729987 0.000241458 0.000925173)
(0.000606267 0.000196834 0.000765404)
(0.000644914 0.000168618 0.00092047)
(0.000536734 8.95081e-05 0.000866361)
(0.00055674 0.000150362 0.000787563)
(0.000728082 0.000131692 0.00102238)
(0.000640839 0.000146332 0.000994918)
(0.000591413 6.56601e-05 0.000949673)
(0.000592836 1.94475e-05 0.000944233)
(0.000474869 2.91329e-05 0.000788287)
(0.000467486 6.58672e-05 0.000733824)
(0.000602137 0.000119478 0.000871654)
(0.000614362 0.000126022 0.000960305)
(0.000577483 2.71604e-05 0.000904837)
(0.000593197 3.7621e-05 0.000934402)
(0.00060259 -4.01357e-05 0.000936526)
(0.000584329 3.81194e-05 0.000894421)
(0.000668859 0.000131642 0.000971396)
(-3.13417e-05 -4.31704e-05 0.000168305)
(0.000500782 -2.85124e-06 0.000820626)
(0.000455782 5.63109e-05 0.000718042)
(0.000649162 0.000149174 0.000956785)
(0.000675346 0.000189091 0.00101262)
(0.000564684 -2.27409e-06 0.000944056)
(0.000702227 6.17112e-05 0.0011094)
(0.000525714 4.02537e-05 0.000827389)
(0.000649383 2.86553e-05 0.000996179)
(0.000518995 5.09145e-05 0.000821145)
(0.000500015 -2.03623e-05 0.000761365)
(0.000642475 -9.10631e-05 0.000952483)
(0.000687443 3.07079e-05 0.00108984)
(0.000688342 -8.37343e-07 0.00107889)
(0.000368453 -5.08105e-05 0.000536367)
(0.000290433 2.01473e-05 0.00045082)
(0.000325364 9.89417e-06 0.000467577)
(0.000314887 1.01051e-05 0.000482199)
(0.000226456 4.10537e-05 0.000405102)
(0.000300903 2.83277e-05 0.000466469)
(0.000384747 3.20043e-06 0.000500421)
(0.00030174 4.69325e-05 0.000471814)
(0.000350222 4.49905e-05 0.000622211)
(0.000351896 6.21596e-05 0.000596859)
(-2.31129e-05 -4.18121e-05 0.000153489)
(-2.67802e-05 -4.3844e-05 0.000160386)
(-2.47811e-05 -4.0512e-05 0.000148568)
(-2.62634e-05 -3.68344e-05 0.000149431)
(0.000393057 3.32542e-05 0.000615053)
(0.000355683 7.56586e-05 0.000564009)
(0.000423749 1.48648e-05 0.000568791)
(0.000380308 3.22446e-05 0.000511545)
(0.000398285 -1.33215e-05 0.000514022)
(0.000394981 3.78214e-06 0.000485175)
(-2.97042e-05 -3.6224e-05 0.000154804)
(0.000417195 1.96767e-06 0.000537447)
(-3.5026e-05 -2.88971e-05 0.000164877)
(-3.012e-05 -3.46063e-05 0.000155896)
(0.00044883 1.1406e-05 0.000222638)
(0.000446411 1.54732e-05 0.000271338)
(0.000425098 -1.48866e-05 0.000257489)
(-3.34594e-05 -3.445e-05 0.000153923)
(-2.65117e-05 -3.83246e-05 0.000164546)
(-2.59079e-05 -4.18646e-05 0.000161092)
(-3.23106e-05 -3.37707e-05 0.000174983)
(-3.38505e-05 -4.2305e-05 0.000182585)
(-2.96947e-05 -3.02942e-05 0.000166597)
(-2.85591e-05 -2.62474e-05 0.000159403)
(-3.4656e-05 -3.44872e-05 0.000158991)
(0.00039747 6.34884e-05 7.07887e-05)
(0.000458626 6.41046e-05 0.000136787)
(0.000377238 3.25713e-05 7.90855e-05)
(0.000362586 6.63997e-05 5.65699e-05)
(0.000377815 4.66043e-05 8.02569e-05)
(0.000439434 1.03775e-05 0.000124604)
(0.000425027 1.17842e-05 0.000187003)
(0.000450974 -3.14038e-05 0.00019526)
(0.000444898 -2.71022e-07 0.000161294)
(0.00042504 -1.21912e-06 0.000203702)
(0.00041386 2.81136e-05 8.73496e-05)
(0.000431608 -9.51836e-06 9.39522e-05)
(0.000438705 -9.55075e-06 0.000387104)
(0.000416451 5.29993e-06 0.000422103)
(0.000402609 -2.44763e-06 0.000438923)
(0.000364612 5.42655e-06 0.000422068)
(0.000396013 3.20002e-06 0.000463716)
(0.000333086 2.47962e-05 0.000431254)
(0.00046477 -5.45806e-06 0.000415719)
(0.000470886 -2.63117e-05 0.000355798)
(0.000475198 -1.58246e-05 0.000341209)
(0.000415329 -5.16064e-06 0.000355322)
(0.000394211 -2.34546e-05 0.000444861)
(0.000409817 -1.5254e-05 0.000399829)
(0.000435788 2.21764e-05 0.00051629)
(0.00050443 -3.72074e-05 0.000247633)
(0.000464537 -5.28836e-05 0.00033292)
(0.000475687 -5.41325e-05 0.000279783)
(0.000489066 -3.52921e-05 0.000353976)
(0.000524488 -8.90261e-05 0.000227499)
(0.000462812 -5.08797e-05 0.0003858)
(0.000429895 -4.4521e-05 0.000449239)
(0.000470041 -7.23717e-05 0.000430447)
(0.000473798 -1.62204e-05 0.000520513)
(0.000555657 -0.000104267 0.000408596)
(0.000514066 -0.000103775 0.000336813)
(0.000526512 -9.3675e-05 0.000273234)
(0.000510977 -7.04141e-05 0.000343196)
(0.00045811 -5.0741e-05 0.00017637)
(0.000455341 -4.1499e-05 0.00014039)
(0.000487078 -4.47975e-05 0.000180985)
(0.000334483 7.5089e-05 2.67248e-05)
(0.00034423 5.70805e-05 5.38212e-05)
(0.000297501 8.40692e-05 5.60921e-06)
(0.000321163 6.98481e-05 2.42553e-05)
(0.000365142 3.08272e-05 4.59521e-05)
(0.000410083 -2.20931e-06 6.85635e-05)
(0.000336798 4.52634e-05 4.53346e-05)
(0.000228338 8.30896e-05 -4.93824e-06)
(0.000310143 8.97142e-05 1.18601e-05)
(0.000144825 7.12717e-05 3.65351e-05)
(0.000155337 6.78823e-05 1.27119e-05)
(0.000257015 9.74481e-05 6.21072e-06)
(0.000270955 7.19913e-05 4.13033e-05)
(0.000249108 3.98875e-05 -1.79391e-05)
(0.000291768 4.8383e-05 2.55035e-05)
(0.000350612 3.77459e-05 1.76993e-05)
(0.000246937 7.69154e-05 4.73069e-06)
(0.000236164 5.48863e-05 9.79791e-06)
(0.000313818 5.44145e-05 1.61983e-05)
(0.00058854 -0.000139448 0.000192264)
(0.000571367 -0.000142555 0.000347587)
(0.000559074 -0.000139962 0.000274471)
(0.000583594 -0.000128854 0.000351954)
(0.000466361 -3.10531e-05 0.000107711)
(0.000508618 -0.000104712 0.00017224)
(0.000468142 -5.50412e-05 0.000149899)
(0.000472358 -7.64344e-05 0.0001528)
(0.000422568 -1.82599e-05 6.5335e-05)
(0.000458189 -6.03045e-05 9.95983e-05)
(0.000544684 -0.000112139 0.000136508)
(0.000588815 -0.000131671 0.000170813)
(0.00061712 -0.000200072 0.00024156)
(0.00057931 -0.000138811 0.000163788)
(0.00055441 -0.000148202 0.000193921)
(0.000386632 1.61276e-05 3.98068e-05)
(0.000397817 -8.74532e-06 3.82463e-05)
(0.000427513 -5.84673e-05 9.50227e-05)
(0.000399273 -8.6263e-06 6.84699e-05)
(0.000415474 -3.66169e-05 5.69173e-05)
(0.000328242 3.33003e-05 4.40269e-05)
(0.000375258 -5.30865e-06 4.05291e-05)
(0.000553205 -0.000104047 9.79283e-05)
(0.000584081 -0.000159772 0.000115114)
(0.000602964 -0.00015956 0.000107131)
(0.000465738 -7.05224e-05 0.000108622)
(0.000428532 -3.2887e-05 0.000121819)
(0.000477827 -7.01784e-05 8.77518e-05)
(0.000308698 5.43599e-05 0.000527481)
(0.000327257 3.55859e-05 0.00054413)
(0.000370497 -1.53629e-05 0.000581256)
(0.000369189 7.21213e-06 0.000573248)
(0.00031522 7.3789e-05 0.000532489)
(0.000357489 7.39815e-06 0.00054143)
(0.000456532 -2.71771e-05 0.000680891)
(0.000327149 2.79223e-05 0.000534896)
(0.000358502 1.51402e-05 0.000554103)
(0.000415634 2.54739e-05 0.000639899)
(0.000407043 -1.35933e-05 0.000563896)
(0.00037417 1.06216e-05 0.000527764)
(0.000418867 1.62093e-05 0.000599661)
(0.000485775 -1.89728e-05 0.000689789)
(0.000492195 1.86985e-05 0.000810168)
(0.000369439 4.85356e-05 0.000591843)
(0.000423727 4.86635e-05 0.000685456)
(0.000406036 5.04387e-05 0.000679193)
(0.000434321 1.5396e-06 0.00066618)
(0.000576302 -6.9721e-05 0.000814196)
(0.000533079 -0.000118327 0.000710461)
(0.000441734 6.13706e-05 0.000718339)
(0.000461892 -1.64605e-05 0.000679421)
(0.000414692 3.6706e-06 0.000582811)
(0.000468734 5.32207e-06 0.00066629)
(0.000457276 -4.24596e-05 0.00056791)
(0.000414826 -3.37678e-05 0.000492261)
(0.000465413 -1.53961e-05 0.000591609)
(-3.62018e-05 -2.99815e-05 0.00016087)
(0.000532186 -0.000114722 0.000632731)
(0.000503491 -8.33044e-05 0.000534059)
(0.000546802 -3.31612e-05 0.000662989)
(0.000432284 -2.6732e-05 0.000616186)
(0.000502127 -6.05313e-05 0.00063397)
(0.000570099 -4.68062e-05 0.000743824)
(0.000521028 -0.000111757 0.000521057)
(0.000514723 -0.000104233 0.000435397)
(0.000499031 -4.70559e-05 0.000541452)
(0.000635923 -4.36866e-05 0.000969153)
(0.00044504 2.25774e-06 0.000679571)
(-3.63504e-05 -2.58136e-05 0.000148693)
(0.000475189 -2.65341e-05 0.000676531)
(0.000549839 -1.71089e-05 0.000801346)
(0.00062109 -9.39928e-05 0.000870494)
(0.000636408 -0.000138379 0.000803899)
(0.000468327 -7.17582e-05 0.000579246)
(-4.14658e-05 -2.12563e-05 0.000160446)
(0.000582075 -0.000216786 0.000533017)
(0.000604711 -8.63019e-05 0.000721762)
(0.000611226 -0.000107461 0.000826375)
(0.000542467 -0.000115504 0.000677515)
(0.000602259 -7.38865e-05 0.000793684)
(0.000667437 -0.00015279 0.000770604)
(0.000600173 -0.000142194 0.000613269)
(0.000730431 -0.000254899 0.000780626)
(0.000655486 -0.000267076 0.000600404)
(0.000681597 -0.000184223 0.000756818)
(0.000480812 1.15753e-05 0.000751373)
(0.000485693 -4.42418e-05 0.000707537)
(0.00059745 -5.89168e-05 0.000861325)
(0.000639296 -6.47946e-05 0.000952491)
(0.000628052 -0.00016328 0.000866675)
(0.00057751 1.32016e-05 0.000864446)
(0.000652919 -0.000120507 0.00097094)
(0.000618475 4.87548e-05 0.000962394)
(0.00057957 -7.25313e-05 0.000852178)
(0.00057044 -0.000109403 0.000787616)
(0.000680833 -0.00014568 0.000932866)
(0.000564922 -0.000125323 0.000769897)
(0.000619986 -0.000182402 0.000739958)
(0.000700699 -0.000163062 0.000882055)
(0.000798656 -0.000254972 0.000940494)
(0.000616152 -0.000249102 0.000688203)
(0.000735635 -0.000357171 0.000620728)
(0.000743224 -0.00020226 0.000830047)
(0.000619694 -0.000183086 0.00041661)
(0.000515433 -0.000178036 0.000444124)
(0.00060315 -0.000194249 0.000451596)
(0.000585523 -9.81567e-05 0.00059357)
(0.000641746 -0.000178209 0.000593061)
(0.000643922 -0.000219968 0.000408598)
(0.000592855 -0.000208255 0.000361108)
(0.000661713 -0.000218678 0.000252563)
(0.000597258 -0.000164601 0.000346741)
(0.000690785 -0.00025641 0.000418621)
(0.00070557 -0.000301498 0.000288778)
(0.000685588 -0.000248541 0.000389487)
(0.000713466 -0.000268659 0.000594433)
(-4.41813e-05 -1.70927e-05 0.000158687)
(0.000687113 -0.000317141 0.000437436)
(0.000690534 -0.000237057 0.000583498)
(0.000813416 -0.00038507 0.000696606)
(0.000797379 -0.000414613 0.000470722)
(0.000744022 -0.000281835 0.000640386)
(-4.74684e-05 -1.24091e-05 0.000159995)
(0.000775797 -0.000370054 0.000474322)
(0.000815675 -0.000382535 0.000343961)
(-3.59709e-05 -3.43276e-05 0.000183072)
(0.000708923 -0.00027937 0.000446156)
(0.000641714 -0.000217775 0.000260634)
(-4.00189e-05 -2.70476e-05 0.000186317)
(0.000651995 -0.000194689 0.000220133)
(0.000635512 -0.000210227 0.000226326)
(-3.42618e-05 -3.41587e-05 0.000168391)
(0.00070755 -0.000205877 0.000172081)
(-3.74116e-05 -1.67206e-05 0.000169744)
(-4.06973e-05 -2.86292e-05 0.000183176)
(0.00073057 -0.000328048 0.000243607)
(0.000679848 -0.000245975 0.000217909)
(-4.18502e-05 -2.72079e-05 0.000182829)
(0.000674892 -0.000252462 0.00027173)
(0.000391858 -0.000230963 0.000220985)
(-4.53819e-05 -1.97928e-05 0.000178124)
(0.000456179 -0.000280364 0.000181088)
(0.000363946 -0.000224998 0.000177899)
(-4.44063e-05 -2.04418e-05 0.000182249)
(0.000261529 -0.000165014 0.000181098)
(0.000330261 -0.00021586 0.000184571)
(-4.82945e-05 -1.30661e-05 0.000190946)
(0.000237849 -0.000159098 0.000150615)
(0.000288807 -0.000162434 0.00022756)
(-3.71413e-05 -1.96227e-05 0.000164291)
(-3.36556e-05 -1.74077e-05 0.00015154)
(0.000334427 -0.000202015 0.000180218)
(-3.92793e-05 -2.37937e-05 0.000154001)
(-4.11328e-05 -1.82212e-05 0.000168269)
(0.00016002 -9.32593e-05 0.000147995)
(-3.95878e-05 -1.58488e-05 0.000152866)
(-4.35035e-05 -1.32326e-05 0.000166654)
(0.00021929 -0.000139566 0.000170477)
(-4.21022e-05 -1.26254e-05 0.000151033)
(0.000147947 -8.96208e-05 0.000130064)
(7.91215e-05 -3.29988e-05 9.87048e-05)
(0.000134933 -6.80103e-05 0.000148996)
(9.39785e-05 -3.31807e-05 0.000117696)
(6.22024e-05 -2.01736e-05 8.48087e-05)
(0.000105514 -4.14326e-05 0.000126543)
(7.38825e-05 -4.06724e-05 8.04514e-05)
(0.000162557 -8.12017e-05 0.000167893)
(0.000201177 -0.000109578 0.000168601)
(0.000214088 -0.000178112 8.6453e-05)
(0.000348851 -0.000253799 0.000118633)
(0.000247281 -0.000166758 0.000141439)
(9.16874e-05 -6.72734e-05 6.69038e-05)
(0.000205066 -0.000160728 0.000102969)
(0.000147905 -0.000100125 0.000113983)
(0.000103766 -6.63751e-05 9.98707e-05)
(0.000146919 -9.0803e-05 0.000131605)
(0.000196793 -0.000126522 0.000129802)
(3.95485e-05 -4.63958e-05 1.80466e-05)
(0.000104249 -6.78123e-05 8.89996e-05)
(7.50529e-05 -7.3799e-05 4.89826e-05)
(4.09761e-05 4.85087e-05 8.94889e-05)
(4.42759e-05 2.81835e-05 9.1922e-05)
(4.42955e-05 4.83928e-05 9.68395e-05)
(5.89313e-05 5.51471e-05 0.00010807)
(7.31734e-05 3.49618e-05 0.000113027)
(3.48126e-05 4.75574e-05 6.9945e-05)
(-2.55081e-05 -3.87222e-05 0.000144858)
(2.00411e-05 7.07251e-05 6.81227e-05)
(1.9454e-05 4.0344e-05 3.383e-05)
(4.69398e-05 3.57743e-05 7.29295e-05)
(2.45945e-05 3.35518e-05 3.54196e-05)
(5.92502e-05 1.49137e-06 9.77525e-05)
(-2.83224e-05 -3.54302e-05 0.000147207)
(2.83408e-05 1.73775e-05 6.31674e-05)
(5.43985e-05 3.61584e-06 9.44528e-05)
(4.18675e-05 3.96446e-06 6.77843e-05)