# Region type : patch LMPA
# Faces  :    702
# Area   :    7.402256e-05
# Time        	sum(phi)
0             	0.000000e+00
