# Region type : patch LMPA
# Faces  :    702
# Area   :    7.402256e-05
# Time        	sum(phi)
0.6           	3.597128e-05
