/*--------------------------------*- C++ -*----------------------------------*\
  =========                 |
  \\      /  F ield         | OpenFOAM: The Open Source CFD Toolbox
   \\    /   O peration     | Website:  https://openfoam.org
    \\  /    A nd           | Version:  7
     \\/     M anipulation  |
\*---------------------------------------------------------------------------*/
FoamFile
{
    version     2.0;
    format      ascii;
    class       volScalarField;
    location    "7.75";
    object      p;
}
// * * * * * * * * * * * * * * * * * * * * * * * * * * * * * * * * * * * * * //

dimensions      [0 2 -2 0 0 0 0];

internalField   nonuniform List<scalar> 
382612
(
0.00208162
0.0018417
0.00199834
0.00200112
0.00174281
0.0022104
0.00212369
0.00201571
0.00184458
0.0016867
0.00188059
0.00186837
0.00181455
0.00184204
0.00195318
0.002075
0.00185277
0.00199265
0.002023
0.00204309
0.00206219
0.0020869
0.00211156
0.00212163
0.00210277
0.00207932
0.00205632
0.00246452
0.0025088
0.0025462
0.00257726
0.00236795
0.00236151
0.00235271
0.00233689
0.00225106
0.0019607
0.00204632
0.00210738
0.00213819
0.00216339
0.00218571
0.00210155
0.00208572
0.00206476
0.00203818
0.00195489
0.00196911
0.00198931
0.00200593
0.00216452
0.0021487
0.00212967
0.00210911
0.00208262
0.0019258
0.0019767
0.0020582
0.00212043
0.00201086
0.00208368
0.00196053
0.00197785
0.00261485
0.00202281
0.00186814
0.00213264
0.0023361
0.00243722
0.00256807
0.00258545
0.00258778
0.00258892
0.00272756
0.00271805
0.00270543
0.00268096
0.0025762
0.00237499
0.00247703
0.00251687
0.00254374
0.00256266
0.00289446
0.00290162
0.00290987
0.00289424
0.00274202
0.00212449
0.00224993
0.00228075
0.0022957
0.0023056
0.00248086
0.00249504
0.00251243
0.00251374
0.00244506
0.00201666
0.00208484
0.00210648
0.00211973
0.00213394
0.0021501
0.00202587
0.00201867
0.00201033
0.00200711
0.00181751
0.00184636
0.00186749
0.00188275
0.00213273
0.00211429
0.00209361
0.00207291
0.0020451
0.00170705
0.0018236
0.00185564
0.00187043
0.00187927
0.00204175
0.00202362
0.00200378
0.00198106
0.00191398
0.00166087
0.00184381
0.00197334
0.00199607
0.00200484
0.00200776
0.00221597
0.00222469
0.00223683
0.00224947
0.00236258
0.00234151
0.0022115
0.00218034
0.0021613
0.00214767
0.00189695
0.00188708
0.00187548
0.00186936
0.00198777
0.00200089
0.00201207
0.00201926
0.00201296
0.00200945
0.00200263
0.00199764
0.00203961
0.00195892
0.00188983
0.00188972
0.00189634
0.00190085
0.00183282
0.00198635
0.00202318
0.00171051
0.00187215
0.00181642
0.00210089
0.00230954
0.00177839
0.00180041
0.00213539
0.00174324
0.00181803
0.00179698
0.00172937
0.00172614
0.0017349
0.00174045
0.00224478
0.00225541
0.00227299
0.00229591
0.00229525
0.00196429
0.00192521
0.00191516
0.0019146
0.00191595
0.00223626
0.00225108
0.00227499
0.00230467
0.00233311
0.00200507
0.00211484
0.0021228
0.00212158
0.00211677
0.00211364
0.00193254
0.00193265
0.00193496
0.00194682
0.00164737
0.00165032
0.00165734
0.0016602
0.00198284
0.0019834
0.00198348
0.00198608
0.00202281
0.00167269
0.00166283
0.00202611
0.00192455
0.00160973
0.00184114
0.00198185
0.00169388
0.00197255
0.0019397
0.00166179
0.00158537
0.00189842
0.00190895
0.0017551
0.00157648
0.00180959
0.00195023
0.00200713
0.00198323
0.00197228
0.00183779
0.00167287
0.00200813
0.00193195
0.00199437
0.00202801
0.00194759
0.0019943
0.0021168
0.00209388
0.00189663
0.00193978
0.0019768
0.00198749
0.00200078
0.00201484
0.00216568
0.00216332
0.00215489
0.00211471
0.00237992
0.00235565
0.00233716
0.00232013
0.00273977
0.00272962
0.00272011
0.00269656
0.00256243
0.00248169
0.0024181
0.00242328
0.00243498
0.00243838
0.00244427
0.0021076
0.00210967
0.00210494
0.00209126
0.00209932
0.00256176
0.00252491
0.00252776
0.00253715
0.0025454
0.00237284
0.00235922
0.00233736
0.00232026
0.00234418
0.00255966
0.00251373
0.00251309
0.00252689
0.00253828
0.00273951
0.00273994
0.00273976
0.00273056
0.00265948
0.00257468
0.00269906
0.00272868
0.00274141
0.00274881
0.00316796
0.00317415
0.00318214
0.00316416
0.00299188
0.00222054
0.0022464
0.00226182
0.00228405
0.00230221
0.00237555
0.00236779
0.00235731
0.00233625
0.00223761
0.00205531
0.00213344
0.00216613
0.00218998
0.00220588
0.00254299
0.00255746
0.00258103
0.00259187
0.00250803
0.00185386
0.00185188
0.00185771
0.00187446
0.00189035
0.00196621
0.00196606
0.00197812
0.00199245
0.00200217
0.00194265
0.00192784
0.00190929
0.00189877
0.00188777
0.00243886
0.00244239
0.00242143
0.00239534
0.0023769
0.00187311
0.00186403
0.00185328
0.00185506
0.00189511
0.00237904
0.00232909
0.00229781
0.00227285
0.00225707
0.00174617
0.0017418
0.00173725
0.00175145
0.00184945
0.00204873
0.00198566
0.00197685
0.00198124
0.00198629
0.00222178
0.0022345
0.00225394
0.00228047
0.00232993
0.00195159
0.00186018
0.00184823
0.00185491
0.00186128
0.00218823
0.00219901
0.00221462
0.00223206
0.00224084
0.00200964
0.00204374
0.00204595
0.00204685
0.0020438
0.0020409
0.00196462
0.00196385
0.00196352
0.00196894
0.00180885
0.00180628
0.00180791
0.00180881
0.00198242
0.00198578
0.00198877
0.00199096
0.00199925
0.00182815
0.0020829
0.00202849
0.00201589
0.00201208
0.00200938
0.00195993
0.00212855
0.00220512
0.00215595
0.00214055
0.00213236
0.00212678
0.00198935
0.00198902
0.00198821
0.00198759
0.00203828
0.00203595
0.00203217
0.00202929
0.00205398
0.00205531
0.00205745
0.00205896
0.00204089
0.00204252
0.00204652
0.0020494
0.0022211
0.00222548
0.00223006
0.00223376
0.00225468
0.00205687
0.00206179
0.00208962
0.00215609
0.00200691
0.00205705
0.00201792
0.00190268
0.00178539
0.00197741
0.0019803
0.00181787
0.0021513
0.00210832
0.00208024
0.00212098
0.00199669
0.00204093
0.00210832
0.00218936
0.0021859
0.0022865
0.00227634
0.00224131
0.00223531
0.00223653
0.00223854
0.00232179
0.00231888
0.0023148
0.00231028
0.00230956
0.00236303
0.00236988
0.00237176
0.00237402
0.00237697
0.00230613
0.00230661
0.00230659
0.0023037
0.00230058
0.00213022
0.00207395
0.00208168
0.00208371
0.00208312
0.00208283
0.00214348
0.00213679
0.00212828
0.00212312
0.00207493
0.00207901
0.00208399
0.00208771
0.00205632
0.00205741
0.00205895
0.00205864
0.00205502
0.00207482
0.00226762
0.0022535
0.00225392
0.00225293
0.00225081
0.00226678
0.00234763
0.00229679
0.00228279
0.00228782
0.00229597
0.00230196
0.00251149
0.00251076
0.00250809
0.00249636
0.00245752
0.00248611
0.00251043
0.00252003
0.00252622
0.00253067
0.00244172
0.00243593
0.00242842
0.00242054
0.00241643
0.00234305
0.00237203
0.0023853
0.00239114
0.00239485
0.00220046
0.00218978
0.00217707
0.00217051
0.00212435
0.00212847
0.00212918
0.00213008
0.00216689
0.00216511
0.00216314
0.00215897
0.00221657
0.00221851
0.00222442
0.00222958
0.00245812
0.00244713
0.00243288
0.00241484
0.00238238
0.00221925
0.00214119
0.00212789
0.00224328
0.00217114
0.00211683
0.00208401
0.00214688
0.00200909
0.00203461
0.00208629
0.00213312
0.00218342
0.00209464
0.00210762
0.00221622
0.00217425
0.00210793
0.00229133
0.00236301
0.00245447
0.00249068
0.00244049
0.00244637
0.00245456
0.00246363
0.00247012
0.00258992
0.00258308
0.0025729
0.00255756
0.00252735
0.00255481
0.00258562
0.00259789
0.00260501
0.0026095
0.0025181
0.00251415
0.0025078
0.00249695
0.00248356
0.00247573
0.00248715
0.00249391
0.00249735
0.00249936
0.00243325
0.00242293
0.00240928
0.00239356
0.0023609
0.0022261
0.00224806
0.0022477
0.00224508
0.00224303
0.00231808
0.00230909
0.00229837
0.00228337
0.00223613
0.00215724
0.00210522
0.00211513
0.00211957
0.00211986
0.00211942
0.00214307
0.00213929
0.00213503
0.00213734
0.00218507
0.00219003
0.00219673
0.00220193
0.0021355
0.00213444
0.0021337
0.00213245
0.00212351
0.0021801
0.002163
0.00210266
0.00210341
0.00214977
0.00210893
0.00207776
0.00208809
0.00212685
0.00222473
0.00213114
0.00205846
0.00207558
0.00215069
0.00207661
0.00231338
0.0026387
0.00221445
0.00210813
0.00233902
0.00248324
0.00256721
0.00258187
0.00256003
0.0025395
0.00245423
0.00248834
0.00250338
0.00251051
0.00251456
0.00259082
0.00258576
0.00257949
0.0025703
0.00254131
0.00255701
0.00258898
0.00259874
0.00260496
0.00260975
0.00256161
0.00255345
0.00254262
0.00253128
0.00251762
0.00255546
0.00258724
0.002599
0.00260607
0.00261097
0.00256745
0.00256456
0.00255832
0.00254395
0.00250537
0.0023873
0.0023832
0.00238816
0.00239574
0.00240193
0.00245835
0.00245628
0.00245355
0.00244692
0.00242252
0.00230576
0.00230483
0.00231004
0.00231562
0.00231933
0.00219412
0.00219009
0.00218512
0.0021808
0.00217583
0.00211325
0.00208932
0.00209742
0.00210052
0.00210037
0.0020986
0.00212126
0.00211772
0.00211294
0.00210978
0.00209876
0.00210029
0.00210349
0.00210704
0.00207186
0.00207207
0.00207028
0.00206547
0.00206305
0.00210518
0.00219445
0.00218818
0.00219224
0.00219758
0.00220204
0.00214852
0.00214435
0.00213901
0.00213511
0.0021382
0.00206138
0.00204666
0.00205785
0.00206148
0.00206306
0.00206499
0.00208522
0.00207981
0.00207326
0.00206794
0.00208841
0.00208908
0.00209034
0.0020915
0.00208485
0.00208268
0.00208244
0.00208186
0.00207419
0.00208687
0.00208178
0.00205335
0.00207374
0.00207285
0.00201236
0.00201881
0.00210227
0.00213197
0.0021567
0.00209276
0.00206742
0.00204351
0.00208675
0.00207155
0.00197884
0.00188195
0.00211713
0.00207736
0.00214155
0.00219134
0.00232033
0.00217729
0.00218288
0.00234066
0.0020939
0.00206117
0.00213464
0.00227261
0.00219418
0.00211207
0.00210104
0.0022311
0.00227548
0.0021354
0.00208888
0.00209283
0.00233469
0.00232579
0.00237947
0.00238478
0.00239326
0.00238113
0.00237871
0.00237936
0.00238064
0.00237755
0.00237604
0.00237522
0.00237685
0.00237544
0.00246299
0.00248176
0.00248653
0.0024903
0.00249353
0.00241313
0.00241097
0.00240637
0.00239532
0.00237081
0.0023103
0.00230585
0.00230567
0.00230842
0.00231175
0.00241855
0.0024137
0.00240811
0.00240073
0.00237758
0.00240101
0.00242675
0.00243609
0.00244345
0.00244952
0.00253926
0.00253457
0.00252725
0.00251105
0.00246978
0.00238979
0.00240973
0.00242304
0.00243122
0.00243614
0.00252069
0.00251519
0.00250887
0.0025024
0.00248387
0.00247744
0.00248785
0.00249286
0.00249704
0.00250022
0.00241503
0.00241269
0.00241078
0.0024091
0.00239639
0.00234626
0.00233733
0.00233496
0.00233637
0.0023381
0.00224782
0.00224275
0.00223658
0.00223426
0.00224749
0.00226612
0.00228239
0.00228555
0.00228541
0.00228556
0.00217192
0.00217405
0.00217576
0.00217579
0.00216806
0.00216729
0.00218249
0.00218246
0.00217896
0.0021756
0.00204825
0.0020441
0.00203955
0.0020388
0.00206796
0.00207315
0.00207609
0.00207873
0.00206813
0.00206425
0.00205941
0.00205221
0.00204409
0.00204617
0.00204407
0.0020488
0.00205396
0.00205776
0.00207807
0.00207873
0.00207896
0.00207921
0.00207916
0.00206089
0.00205782
0.00205716
0.00205719
0.002057
0.00201858
0.00201476
0.00200958
0.00200576
0.00202264
0.00202731
0.00203116
0.00203504
0.00210471
0.00210098
0.00209911
0.00209689
0.00207017
0.00206756
0.0020695
0.00207219
0.00209835
0.00210259
0.00210851
0.00211491
0.00212031
0.00208208
0.00209103
0.00207221
0.00204885
0.00189298
0.00197217
0.00209475
0.00204697
0.00200407
0.00204358
0.00208362
0.00208892
0.00181413
0.00196532
0.00195506
0.00177736
0.00186769
0.00194684
0.002006
0.0019672
0.00208374
0.00205639
0.00210665
0.002197
0.00230872
0.00214402
0.00210376
0.00217146
0.00218115
0.00212715
0.00201715
0.00200641
0.00196084
0.00223438
0.00247762
0.00264705
0.00271911
0.00267956
0.00253656
0.00233052
0.00209908
0.00188713
0.00175098
0.0017994
0.00181223
0.00181135
0.00180834
0.00193503
0.00192789
0.00192012
0.00191549
0.00191023
0.00212312
0.00218967
0.00220621
0.00220745
0.0022061
0.00228992
0.00228127
0.00227129
0.00226401
0.00224683
0.0021885
0.00223939
0.00225192
0.00225727
0.00226095
0.00223311
0.00223173
0.002227
0.00221345
0.00216569
0.0023482
0.00235878
0.0023633
0.00237143
0.00237895
0.00231551
0.00231488
0.00231105
0.00229665
0.00224833
0.0021722
0.00218164
0.0021874
0.00219118
0.00219283
0.00232922
0.00232519
0.00232201
0.00232319
0.00232755
0.0022982
0.00229263
0.00229796
0.00230439
0.00230907
0.00230308
0.00230151
0.00229768
0.00229009
0.00228273
0.00223411
0.00225173
0.00225832
0.00225988
0.00225981
0.00216516
0.00216267
0.00215965
0.00215902
0.00216463
0.00222927
0.0022185
0.00221242
0.00220914
0.0022077
0.00212013
0.00211539
0.00211052
0.00211233
0.00214014
0.00210977
0.00209737
0.00209939
0.00210353
0.00210635
0.00212855
0.00213327
0.00214094
0.00215016
0.00215267
0.00203328
0.00202025
0.00202222
0.002025
0.00202661
0.00199134
0.00198911
0.00198568
0.00198414
0.00199867
0.00200893
0.00200402
0.00200443
0.00200484
0.00200406
0.00204036
0.00203659
0.00203134
0.00202712
0.00202811
0.00197606
0.00200272
0.00201159
0.00202165
0.00203146
0.00203983
0.00201573
0.00200844
0.00199763
0.00198558
0.00200691
0.00200784
0.00201019
0.00201198
0.00204648
0.00204443
0.00204236
0.0020382
0.00202962
0.00201668
0.00206113
0.00208362
0.00207487
0.00202016
0.00192546
0.00202832
0.00198051
0.00184996
0.0020007
0.00203022
0.00187997
0.00167813
0.00176992
0.0019515
0.00185942
0.00165105
0.00181699
0.00188284
0.00192935
0.00191581
0.00194612
0.00196921
0.00200323
0.00195461
0.00163186
0.00184257
0.00185108
0.00164064
0.0016198
0.0016746
0.00174557
0.00191827
0.00209315
0.00222159
0.00227193
0.00222024
0.00207215
0.00185282
0.00160939
0.00138302
0.00127632
0.00132858
0.00133619
0.00133156
0.00132612
0.00144446
0.001438
0.00143169
0.00142848
0.00142034
0.00170932
0.00176224
0.00177309
0.00177052
0.00176567
0.00189358
0.00188554
0.00187673
0.0018727
0.0018704
0.00205246
0.00206196
0.00206709
0.00207276
0.00207706
0.00197616
0.00197082
0.00196623
0.00196857
0.00197119
0.00213009
0.00211091
0.00210713
0.00211092
0.00211535
0.00203809
0.00203576
0.00203635
0.00204514
0.00205197
0.00215126
0.00211978
0.00210759
0.00210631
0.00210758
0.00211317
0.00211156
0.00210894
0.00210803
0.00212087
0.00225568
0.00225509
0.00224922
0.00224706
0.00224762
0.00219656
0.00219587
0.00219643
0.00220441
0.00223635
0.0021595
0.00215893
0.00215114
0.00214762
0.00214655
0.00213248
0.00213425
0.00213849
0.00214845
0.00216406
0.00209145
0.00207915
0.00207776
0.00207952
0.00208115
0.00213807
0.00213785
0.00213707
0.00213481
0.00212778
0.00216279
0.00212577
0.00217914
0.00217484
0.00210482
0.00210241
0.00210577
0.00210823
0.00210886
0.00204123
0.00203951
0.00203818
0.00204221
0.00206583
0.002016
0.00201166
0.00201449
0.00201516
0.00201477
0.00200333
0.00200196
0.00199959
0.00199719
0.00200575
0.00200114
0.00200536
0.0020065
0.00200625
0.00200584
0.00196188
0.00196248
0.0019635
0.00196782
0.00198855
0.00214759
0.00214177
0.00212706
0.00211617
0.00211016
0.0020826
0.00208587
0.00209268
0.00210913
0.00216048
0.00206605
0.00208074
0.00207284
0.00207014
0.00206878
0.00206975
0.00201662
0.00201826
0.00202196
0.00203394
0.00195441
0.00196506
0.0019706
0.00197395
0.00209966
0.00209648
0.00209267
0.00208305
0.00205616
0.00193083
0.00199202
0.00212348
0.00202344
0.00192703
0.00191504
0.00209499
0.00193992
0.00193124
0.00196237
0.00197306
0.00197482
0.00197401
0.00188499
0.00188451
0.00188286
0.00188176
0.0018899
0.00194705
0.00198097
0.00198431
0.00198253
0.00198016
0.00202005
0.00202731
0.00203369
0.00202887
0.00197262
0.00196336
0.00200956
0.00203221
0.00203895
0.00204375
0.00204988
0.00201136
0.00201388
0.00201462
0.00200708
0.00194226
0.00194992
0.00195944
0.00196587
0.00206665
0.00206014
0.00205213
0.00204042
0.00202366
0.00195825
0.00205473
0.00206194
0.00203293
0.00195755
0.00176972
0.00194289
0.00190405
0.00166592
0.00162695
0.0018498
0.00178573
0.00155346
0.00180296
0.00187611
0.00194178
0.00198262
0.00183573
0.00185239
0.00190142
0.0018757
0.00184219
0.00193194
0.00199144
0.00192423
0.00205615
0.00204823
0.00198844
0.00193616
0.0018881
0.00200361
0.00193461
0.0017709
0.00203538
0.00205515
0.0020535
0.00207982
0.00203457
0.00203306
0.00200839
0.00204192
0.00169256
0.00185412
0.00190351
0.00168384
0.00176786
0.00191924
0.00196409
0.00199018
0.00187499
0.00194923
0.00189423
0.00177401
0.00174722
0.00188704
0.00192321
0.00170686
0.0017845
0.00195073
0.00195951
0.00176367
0.00185915
0.00198671
0.00199977
0.00189586
0.0017851
0.00198621
0.00194726
0.0017064
0.00194938
0.00193954
0.00191061
0.0018655
0.00178705
0.00177726
0.00178034
0.00178203
0.0020079
0.00200836
0.00200917
0.00201692
0.0020655
0.00228538
0.00223136
0.00221175
0.00220175
0.00219674
0.00199705
0.00199207
0.00198707
0.00199586
0.00207083
0.00224581
0.00221938
0.00220561
0.00219905
0.00219616
0.00215254
0.00214923
0.00214609
0.00215101
0.00219976
0.00212915
0.00210978
0.00199443
0.00195126
0.0019007
0.0018932
0.00189472
0.00189552
0.00208651
0.00208833
0.0020892
0.00208881
0.00210686
0.00228069
0.00224655
0.00223296
0.00222904
0.00222821
0.00214649
0.00214238
0.00213757
0.00214021
0.00218164
0.00232069
0.00231567
0.00230942
0.00230656
0.00230533
0.00222575
0.00222563
0.00222543
0.00222863
0.00225763
0.00225273
0.0022327
0.00215065
0.00209969
0.00202188
0.00198797
0.00198555
0.00198732
0.00198854
0.00216823
0.00216878
0.0021721
0.00218345
0.00219875
0.00226784
0.00226122
0.00225479
0.00225386
0.002255
0.00228455
0.00228264
0.00227941
0.00227497
0.00227601
0.00230732
0.00231615
0.00232066
0.00232092
0.00232025
0.00233702
0.00244376
0.00240741
0.00229086
0.00212821
0.00202223
0.00204534
0.0020537
0.0020532
0.00205073
0.00219
0.00218538
0.00218293
0.00218738
0.00219405
0.00223345
0.00224846
0.00225361
0.00226046
0.0022672
0.00215061
0.00215384
0.00215417
0.00214059
0.0020914
0.00189662
0.00187604
0.00187452
0.00188074
0.00188681
0.00174285
0.00174716
0.00175006
0.00174162
0.00171565
0.00148096
0.00146947
0.00146299
0.00146322
0.00146522
0.00147061
0.00146706
0.00146366
0.00146472
0.00147199
0.00121949
0.00121424
0.00121621
0.00122243
0.00122839
0.00119253
0.00119213
0.00119329
0.00119581
0.00119314
0.00102494
0.00101273
0.00101407
0.00101641
0.00101858
0.000934869
0.000929443
0.000926301
0.000930283
0.000955573
0.00118803
0.00120429
0.00120701
0.00120143
0.00119453
0.00133276
0.00132731
0.00132245
0.00132537
0.00134646
0.00156754
0.00155249
0.00155167
0.001556
0.00156094
0.00175067
0.00175574
0.00176008
0.00175563
0.0017274
0.00183691
0.00186294
0.0018696
0.0018699
0.00186966
0.00177669
0.00177938
0.00178058
0.00177714
0.00178345
0.00185662
0.00183559
0.00183705
0.00184144
0.00184528
0.00195586
0.00195632
0.00195623
0.00195282
0.00194413
0.00192782
0.00190806
0.00190541
0.00190534
0.00190455
0.00211675
0.00211841
0.0021245
0.00213439
0.00214333
0.00189741
0.00187357
0.0018733
0.00187669
0.00187874
0.00193597
0.0019367
0.00193754
0.00193683
0.001933
0.00193211
0.00190652
0.00190149
0.00190056
0.00190023
0.00204572
0.00205074
0.0020607
0.00207763
0.00209072
0.00210522
0.00207218
0.00205915
0.00205359
0.002051
0.00185834
0.00185578
0.0018518
0.0018487
0.00186061
0.00188247
0.00186936
0.0018705
0.00187248
0.00187344
0.00211172
0.00212151
0.00213859
0.00216256
0.00216665
0.00222591
0.00224174
0.0022226
0.00220602
0.00219613
0.00220899
0.00221162
0.00221842
0.00223113
0.00223064
0.00231293
0.00229951
0.0022988
0.00229814
0.0022997
0.00207842
0.00207408
0.002068
0.00206378
0.00206535
0.00193196
0.00194411
0.00198544
0.00200256
0.00201805
0.00203084
0.00206644
0.00206364
0.00205818
0.00203546
0.00215509
0.00215465
0.00215498
0.00215641
0.00213708
0.0021289
0.00212307
0.00212114
0.00213659
0.00214557
0.00205906
0.00210662
0.00198663
0.00188608
0.00213598
0.00207412
0.00201668
0.00194549
0.00179653
0.0019168
0.00190121
0.00180727
0.00185368
0.00184409
0.00193508
0.00196438
0.00191011
0.00195242
0.00197732
0.00191751
0.0018319
0.00194645
0.00191366
0.00177175
0.00180766
0.00190039
0.00185626
0.00180132
0.00191061
0.0016364
0.00145464
0.00129834
0.00121726
0.00119739
0.00119531
0.00117327
0.00112199
0.00105677
0.000980407
0.000896346
0.000803301
0.000707441
0.000608979
0.000693236
0.000682362
0.000681586
0.000683781
0.000685649
0.000822165
0.000833279
0.000845325
0.000852174
0.000846562
0.000904049
0.000906114
0.000903675
0.000898407
0.000893409
0.00084664
0.000856587
0.000866699
0.00087239
0.000881731
0.0011158
0.00107034
0.00105915
0.00106031
0.0010643
0.00121274
0.00122118
0.00122868
0.0012282
0.00122927
0.00150847
0.00148585
0.00147411
0.00147329
0.00147447
0.00167384
0.00167207
0.00167417
0.00168804
0.00172678
0.00156432
0.00157031
0.00157063
0.00156922
0.00156716
0.00152479
0.00152897
0.00153154
0.00153317
0.00155513
0.00187865
0.00185726
0.00183967
0.00183331
0.00183194
0.00190304
0.00190371
0.00190806
0.00192513
0.00198173
0.00169143
0.00169839
0.00169948
0.00169902
0.00169823
0.00172175
0.00172382
0.00172655
0.00173151
0.00175264
0.00198543
0.00198267
0.00196592
0.00195531
0.00195025
0.00193038
0.00193307
0.00193972
0.00195664
0.00200378
0.00172834
0.00172107
0.00172235
0.00172458
0.00172523
0.00179384
0.00179454
0.00179526
0.00179469
0.00179353
0.00186845
0.00184583
0.0018394
0.00183629
0.00183431
0.00205736
0.00206765
0.00208442
0.00210434
0.00209872
0.00177647
0.00178138
0.00178812
0.00179146
0.00179291
0.00183474
0.00183159
0.0018241
0.00180904
0.00179097
0.0018087
0.00182725
0.00184547
0.0018575
0.00186395
0.00195714
0.00195004
0.00193784
0.0019163
0.00188161
0.00178913
0.00183527
0.00185883
0.00187059
0.00187654
0.00213587
0.00213052
0.00212188
0.00209971
0.00202573
0.00219477
0.00223011
0.00222959
0.00222673
0.00222614
0.00210625
0.00210992
0.0021129
0.00210653
0.00203284
0.00204052
0.00205264
0.00206424
0.00212466
0.00210903
0.00209174
0.00207649
0.00208442
0.00209961
0.0021034
0.00210426
0.00233885
0.00233527
0.0023314
0.00231517
0.0022108
0.00200268
0.00206675
0.00206163
0.00191268
0.00188713
0.00206773
0.0020589
0.00188021
0.00194979
0.00211189
0.00214367
0.00215736
0.00216396
0.0021707
0.00204563
0.0020343
0.00201574
0.00199472
0.00228322
0.00230676
0.0023071
0.0023073
0.0021903
0.00218492
0.0021764
0.00216064
0.00213854
0.00229601
0.00229129
0.00229183
0.00228506
0.00228115
0.00229838
0.00229386
0.00228836
0.00227687
0.00233537
0.00204089
0.00205869
0.0020619
0.00206664
0.00207429
0.00208163
0.00216818
0.00216969
0.00216974
0.00215394
0.00206473
0.0020911
0.00210125
0.00210868
0.00205247
0.00204409
0.00203477
0.00202455
0.00199404
0.00190023
0.00183572
0.00205615
0.00199624
0.00200857
0.002008
0.00193081
0.00191644
0.00190995
0.00207523
0.00199382
0.00190005
0.00191787
0.00197361
0.00189439
0.00196261
0.00194321
0.001916
0.00164471
0.00128131
0.000911923
0.00064686
0.000547597
0.000606145
0.00073796
0.000840332
0.000849343
0.000766491
0.000637551
0.000555802
0.000486341
0.000452709
0.000394886
0.000418656
0.000404364
0.000396895
0.000389967
0.000384297
0.000453247
0.000454278
0.000457967
0.000468891
0.000503335
0.000548521
0.000536262
0.000529781
0.000520998
0.000512131
0.000659509
0.000662006
0.000668236
0.000684326
0.000712832
0.000916223
0.00087178
0.000851079
0.000842346
0.000838164
0.000953246
0.00096087
0.000967087
0.000969306
0.000982159
0.00131784
0.00128139
0.00126151
0.00125555
0.00125546
0.00145588
0.00145844
0.00146521
0.00148687
0.00155765
0.00130158
0.00130831
0.00130823
0.00130716
0.00130655
0.00133755
0.00134194
0.00134529
0.00134875
0.00137216
0.00174169
0.00172327
0.00170149
0.00168833
0.00168257
0.00174481
0.00174747
0.00175436
0.00177357
0.00183341
0.0014728
0.00148273
0.00148465
0.00148495
0.00148421
0.00158421
0.00158709
0.00159074
0.00159634
0.0016144
0.00186976
0.00186902
0.00184956
0.00183448
0.00182666
0.00184679
0.00185415
0.0018685
0.0018911
0.00190322
0.00198652
0.00195659
0.00193668
0.00192518
0.00191946
0.00162473
0.00162308
0.00161686
0.00160417
0.00159588
0.00167343
0.00168136
0.00169159
0.0016981
0.00170064
0.00182312
0.00182028
0.00181649
0.00181208
0.00179781
0.00190805
0.00193539
0.00194062
0.00194188
0.00194242
0.00206298
0.00206235
0.00206076
0.00205415
0.00202123
0.00199891
0.00202708
0.00203327
0.00203522
0.00203538
0.00207141
0.00206301
0.00204873
0.00202418
0.00197932
0.00205509
0.00206029
0.0020704
0.00207869
0.00208372
0.00222676
0.00223187
0.00223938
0.00223993
0.00218469
0.00209179
0.00218135
0.00219097
0.00218912
0.00218722
0.00209968
0.00209552
0.00208951
0.00208035
0.00203066
0.0021419
0.0021457
0.00214245
0.00214089
0.00214357
0.00212374
0.00198254
0.00200781
0.00197104
0.00206314
0.00219933
0.0018336
0.00200409
0.00221449
0.00186201
0.00220147
0.00292869
0.00205365
0.00218558
0.00226859
0.00255593
0.00202305
0.00164947
0.0011468
0.000724519
0.000445303
0.000381215
0.000476301
0.000625402
0.000721698
0.000703578
0.000602126
0.000485935
0.000396881
0.000366728
0.000327783
0.000429387
0.00043337
0.000430106
0.000426674
0.000424615
0.000328076
0.000334612
0.000339017
0.000339716
0.000345829
0.0005909
0.000582939
0.000565298
0.000550875
0.000541946
0.000783236
0.000792704
0.000805205
0.000817403
0.000835094
0.000772741
0.000755594
0.000753301
0.000749075
0.00074358
0.0011384
0.00114907
0.00116821
0.00119685
0.00122626
0.00139036
0.00135576
0.00133964
0.00132762
0.00131952
0.00125552
0.00125916
0.00126272
0.00126697
0.00128784
0.00166911
0.00164753
0.00162147
0.00160444
0.00159556
0.00166691
0.00167276
0.00168239
0.00169621
0.00171638
0.00134522
0.00133238
0.00133624
0.00134152
0.00134466
0.00147017
0.00147003
0.00146971
0.00147014
0.00148208
0.00156122
0.00156474
0.00156353
0.00156053
0.00155797
0.00165274
0.00166101
0.00166984
0.00166929
0.00163458
0.00169516
0.00172989
0.00172654
0.00171491
0.00170353
0.00193137
0.00193886
0.00195026
0.00195385
0.00190161
0.00191709
0.00194637
0.00194989
0.00195092
0.00195095
0.00197244
0.00197113
0.0019667
0.00195581
0.00190853
0.00204844
0.00209358
0.00210585
0.00211186
0.00211553
0.00219917
0.00220049
0.00220158
0.00219705
0.00215546
0.00222327
0.0022439
0.00224894
0.00225404
0.00225823
0.00233882
0.00234468
0.00235321
0.00234934
0.00226494
0.00207592
0.00204341
0.00205375
0.00207444
0.00208933
0.00238615
0.00238241
0.00237722
0.0023688
0.00232433
0.00228097
0.00226523
0.00226494
0.00226944
0.00227273
0.00224739
0.0022533
0.00226027
0.00225306
0.00217854
0.00202534
0.00213873
0.00214859
0.00214168
0.00213488
0.00226664
0.00227309
0.00228436
0.00227875
0.00214802
0.00189563
0.00192119
0.00193322
0.00194153
0.00194654
0.00208731
0.00209116
0.00209351
0.00208392
0.00204473
0.00204208
0.00194297
0.00193531
0.00204409
0.00205993
0.00192565
0.00198305
0.00199317
0.00199703
0.00199838
0.00206737
0.00206901
0.00207099
0.00206972
0.00201182
0.00197643
0.00200285
0.00195341
0.00192055
0.00191101
0.00194469
0.00196121
0.00196614
0.00190534
0.00196206
0.00199816
0.0019761
0.00197782
0.00218889
0.00207065
0.0020187
0.00207099
0.00201959
0.00199486
0.00195654
0.00187653
0.00190319
0.00197069
0.00202005
0.00202417
0.00206843
0.00204477
0.00200462
0.00199161
0.00197801
0.00198599
0.00204428
0.00210265
0.00205159
0.00202338
0.00198258
0.00193566
0.00192045
0.00198404
0.00201405
0.0020062
0.00196042
0.00198672
0.00198843
0.00194159
0.0019365
0.00197831
0.00194922
0.00192187
0.00191029
0.00194999
0.0019453
0.0018795
0.00188004
0.00197209
0.00191581
0.00185798
0.00192775
0.00194072
0.00197757
0.00201619
0.00199144
0.00196073
0.00193528
0.00196356
0.00198769
0.0019287
0.00195365
0.00199936
0.00194932
0.0019561
0.00194333
0.00195337
0.00205218
0.00196278
0.00198227
0.00207989
0.00187823
0.00184897
0.00166812
0.0014489
0.00117982
0.000921463
0.000830416
0.000874231
0.00116991
0.00126616
0.0015394
0.00167182
0.00169429
0.0017058
0.00171444
0.00200304
0.00201833
0.00203552
0.00204421
0.00201678
0.00146552
0.00151368
0.00152177
0.0015222
0.00151898
0.00214235
0.00216229
0.00218789
0.0022017
0.00218621
0.00159821
0.00155083
0.00154593
0.00154876
0.00154936
0.00218159
0.0022016
0.00223149
0.00226335
0.00225476
0.00225538
0.00230531
0.00230558
0.00229354
0.00228229
0.00168252
0.00168447
0.00168242
0.00167714
0.00166481
0.00163476
0.00166382
0.00166061
0.0016571
0.0016541
0.00203163
0.00204079
0.00205376
0.00207466
0.00215676
0.001694
0.0016389
0.00163405
0.00163618
0.00163541
0.00177846
0.00178051
0.00178388
0.00179364
0.00183788
0.00219882
0.00211353
0.00208568
0.00207354
0.0020665
0.00199118
0.00199893
0.00201358
0.0020414
0.00207483
0.00214815
0.00206773
0.00204601
0.00203892
0.00203585
0.00199825
0.00200207
0.00201244
0.00203585
0.00207893
0.00204801
0.00200418
0.00199851
0.00200071
0.00200344
0.00175635
0.00171457
0.00170994
0.00171016
0.00170898
0.00178235
0.00178295
0.0017824
0.00178464
0.00181078
0.00206537
0.0020342
0.00201376
0.00200472
0.00200207
0.00197998
0.00197739
0.00197757
0.00199255
0.00206257
0.00208007
0.0020781
0.00208145
0.0020819
0.00208099
0.00212507
0.00212505
0.00212471
0.00212205
0.00211486
0.00220253
0.00211659
0.00195349
0.00173894
0.00163655
0.00163136
0.00163369
0.00163115
0.0016269
0.00184887
0.00184993
0.00185397
0.00187122
0.00190642
0.00190811
0.00188865
0.00188062
0.00188102
0.00188316
0.0016913
0.0016966
0.00170153
0.00169792
0.00168578
0.00151589
0.00149487
0.00148253
0.00147834
0.00147712
0.00123958
0.00123953
0.00124335
0.00125859
0.00128918
0.00124359
0.00122518
0.00121866
0.0012186
0.00121993
0.00107721
0.00108605
0.00109506
0.00109765
0.00109292
0.0011494
0.00118136
0.00118112
0.00117004
0.00115886
0.000820218
0.000817421
0.000815993
0.000820652
0.000838819
0.000855864
0.000837047
0.000837326
0.000841994
0.000845643
0.000796532
0.000798496
0.00080145
0.000806974
0.000823729
0.000841972
0.000851886
0.000845325
0.000834222
0.000825166
0.000590784
0.000588618
0.000586676
0.000588372
0.000601723
0.000579255
0.000544378
0.000538651
0.000539273
0.000540455
0.000540209
0.00054349
0.000547549
0.00055254
0.000566531
0.000559821
0.000551922
0.000543979
0.000534619
0.000526608
0.000572809
0.000572941
0.00057517
0.000584982
0.000617625
0.000746847
0.000713895
0.000703468
0.000701699
0.000701698
0.00061484
0.000537758
0.000572943
0.000554506
0.000546805
0.00054133
0.000537232
0.000455619
0.000449828
0.00047897
0.000481461
0.000478082
0.000472168
0.000466898
0.000459886
0.000458194
0.000457898
0.000463527
0.000492577
0.000446538
0.000442807
0.000439959
0.000435689
0.000431886
0.000373814
0.000373536
0.000373777
0.00037633
0.00038803
0.000334903
0.000324334
0.000321547
0.000323027
0.000324833
0.00036619
0.000368263
0.000372209
0.000382535
0.000409202
0.000434329
0.000424593
0.000420462
0.000413734
0.000406985
0.000551743
0.000555526
0.000564101
0.000581271
0.00060731
0.000822309
0.000774626