/*--------------------------------*- C++ -*----------------------------------*\
  =========                 |
  \\      /  F ield         | OpenFOAM: The Open Source CFD Toolbox
   \\    /   O peration     | Website:  https://openfoam.org
    \\  /    A nd           | Version:  7
     \\/     M anipulation  |
\*---------------------------------------------------------------------------*/
FoamFile
{
    version     2.0;
    format      ascii;
    class       volVectorField;
    location    "7.75";
    object      wallShearStress;
}
// * * * * * * * * * * * * * * * * * * * * * * * * * * * * * * * * * * * * * //

dimensions      [0 2 -2 0 0 0 0];

internalField   uniform (0 0 0);

boundaryField
{
    outlet1
    {
        type            calculated;
        value           uniform (0 0 0);
    }
    Wall
    {
        type            calculated;
        value           nonuniform List<vector> 
40276
(
(0.000425441 4.95775e-05 0.000168565)
(-0.000186917 -8.57998e-06 0.000415572)
(-0.00019064 -7.82531e-06 0.000407511)
(9.37183e-05 -9.81443e-06 0.000157162)
(8.06227e-05 2.09062e-05 0.00015597)
(8.36405e-05 5.84673e-05 0.000162571)
(9.88347e-05 4.33859e-05 0.000171659)
(0.000133381 3.66745e-05 0.000185695)
(0.000103275 2.5386e-05 0.000167632)
(0.000100295 6.63928e-06 0.000172323)
(0.000386688 3.84337e-05 0.000409941)
(0.000467453 1.5744e-05 0.000444562)
(0.000584811 4.0249e-05 0.000940018)
(0.000562622 3.85816e-05 0.00087048)
(0.000485522 -1.55045e-05 0.000333428)
(0.000434022 1.74756e-06 0.000362573)
(0.000393013 2.06961e-05 5.80362e-05)
(0.000351443 2.35902e-05 2.41907e-05)
(-0.00011129 -1.09259e-05 -0.000171723)
(-0.000120272 -3.80775e-05 -0.000191368)
(-0.000155228 3.92047e-05 0.000211514)
(-0.000186348 4.4249e-05 0.000198366)
(-0.000119918 3.22333e-05 6.78694e-05)
(-0.000138794 2.96476e-05 6.41849e-05)
(-0.00010007 2.37169e-05 4.32908e-05)
(-0.000112339 2.47643e-05 3.75049e-05)
(-0.000123531 4.09865e-05 2.1815e-05)
(-0.000121009 4.14108e-05 1.59494e-05)
(-0.00018166 5.86537e-05 3.28538e-05)
(-0.000163021 5.03237e-05 2.39651e-05)
(-0.000120634 3.93341e-05 7.12203e-05)
(-0.00013501 4.71475e-05 7.8628e-05)
(-5.25631e-05 -3.17632e-06 0.000159651)
(-4.68063e-05 -4.86485e-06 0.00014838)
(-6.24945e-05 1.02818e-05 8.08682e-06)
(-6.13691e-05 1.16752e-05 7.63788e-06)
(0.000566458 6.61706e-05 0.000214251)
(0.000615757 4.79371e-05 0.000236916)
(0.00105641 0.000255487 0.000401962)
(0.00119476 0.000327835 0.000423502)
(0.000990372 6.3267e-05 0.00016235)
(0.000950814 3.55038e-05 0.000189406)
(-5.01517e-05 -1.43188e-05 -0.00038659)
(-3.01674e-05 -1.087e-05 -0.000350399)
(-5.33636e-05 -2.14218e-06 -0.000351893)
(-4.49814e-05 -6.14724e-06 -0.000289068)
(-7.37353e-05 -3.71543e-07 -0.000297106)
(-5.6368e-05 -3.17413e-06 -0.00023967)
(-6.51979e-05 -8.21643e-07 -0.000206176)
(-6.34288e-05 1.04673e-06 -0.00017127)
(-5.19829e-05 -1.14843e-06 -0.000140195)
(-6.4026e-05 1.34903e-06 -0.000147138)
(-5.5292e-05 -1.71625e-07 -0.000117171)
(-5.84576e-05 2.18881e-06 -0.000118605)
(0.000441687 8.11869e-05 0.000260983)
(0.000459856 9.52215e-05 0.000230154)
(-1.71914e-05 1.31467e-05 0.000130866)
(6.41162e-05 2.19938e-05 0.000191088)
(-1.00725e-05 8.54059e-06 0.000133505)
(-0.000455884 -0.000150762 -0.000436227)
(-0.000485106 -0.000125462 -0.000446627)
(1.90603e-05 3.4539e-05 0.000291551)
(-1.27956e-05 -1.18255e-05 0.000225354)
(1.05103e-05 -1.05166e-06 -4.69052e-05)
(1.33229e-05 2.87671e-06 -4.37975e-05)
(6.61132e-06 -9.17887e-09 -4.28249e-05)
(2.0076e-06 -2.69293e-06 -4.13741e-05)
(1.14894e-05 6.00166e-08 -4.38298e-05)
(-0.000117312 -1.91686e-05 -0.000106771)
(-0.000129342 -8.59335e-06 -0.000115942)
(-5.2906e-05 4.23034e-06 -9.66298e-05)
(-5.38119e-05 9.65178e-08 -9.83792e-05)
(-1.77164e-05 1.32819e-06 -1.79669e-05)
(-1.77073e-05 1.34557e-06 -1.77549e-05)
(-1.60409e-05 1.4027e-06 -1.74336e-05)
(-1.51761e-05 1.71317e-06 -1.6784e-05)
(-1.73068e-05 7.81167e-07 -1.72579e-05)
(2.3288e-05 -1.67291e-06 -5.87178e-06)
(2.02045e-05 -1.74082e-06 -9.64341e-06)
(-9.02324e-07 4.41383e-06 2.71809e-07)
(-1.5949e-07 -2.19825e-07 2.05745e-07)
(7.75639e-06 -1.13153e-06 -4.11683e-07)
(1.86967e-05 1.3524e-07 1.28438e-05)
(1.81388e-05 3.4565e-07 1.31876e-05)
(2.86115e-05 -1.62395e-06 2.01318e-05)
(5.82429e-06 5.09233e-07 -3.79374e-05)
(1.44988e-06 -1.86347e-06 -3.63371e-05)
(4.69176e-06 9.6861e-07 -3.31781e-05)
(2.58165e-05 -1.84499e-06 1.86572e-05)
(2.47282e-05 -1.39295e-06 1.78341e-05)
(2.12337e-05 -8.07042e-07 1.58045e-05)
(-4.46492e-05 -4.67567e-06 -4.04058e-05)
(4.92269e-07 -1.16119e-06 -3.18514e-05)
(3.59027e-06 1.27596e-06 -2.91199e-05)
(-1.67434e-07 -5.83739e-07 -2.81012e-05)
(-8.05873e-07 -3.32195e-07 -2.46413e-05)
(-1.38797e-06 5.50087e-08 -2.1642e-05)
(-2.18512e-06 2.1577e-07 -1.95706e-05)
(-5.51422e-06 -3.2474e-07 -1.57359e-05)
(-6.16705e-06 -1.2294e-07 -1.48308e-05)
(-6.99681e-06 8.91903e-10 -1.44535e-05)
(-1.00197e-05 -2.91991e-07 -1.45484e-05)
(-1.02503e-05 -2.14144e-07 -1.49432e-05)
(-5.01261e-05 -1.0019e-06 -4.39749e-05)
(-1.05321e-05 -3.11952e-08 -1.57873e-05)
(-1.89007e-05 -3.61687e-06 -2.30663e-05)
(-1.57487e-05 -3.59051e-06 -1.84291e-05)
(-1.03931e-05 -1.25597e-07 -1.63707e-05)
(-1.03116e-05 3.78771e-08 -1.73962e-05)
(-9.94019e-06 -5.69254e-07 -1.77379e-05)
(-1.01281e-05 4.2646e-08 -1.88444e-05)
(-9.59854e-06 -6.28962e-07 -1.9608e-05)
(-9.01719e-06 -2.7397e-07 -2.00204e-05)
(-8.78208e-06 -1.07321e-06 -2.15511e-05)
(-8.46007e-06 -1.6848e-06 -2.02011e-05)
(4.19571e-06 -8.88312e-07 -2.6464e-05)
(4.06651e-06 -2.89804e-06 -2.78083e-05)
(2.60373e-06 -2.90626e-06 -2.62433e-05)
(-0.000277046 -6.29614e-05 0.000486917)
(-0.000280105 -6.14573e-05 0.000441506)
(-1.50836e-05 -1.24515e-06 5.39215e-06)
(-1.25726e-05 -1.41894e-06 6.60659e-06)
(-4.16588e-05 -1.78053e-06 1.62821e-05)
(-3.60452e-05 -3.10851e-06 1.51349e-05)
(-4.37085e-06 -8.38438e-06 -5.41215e-06)
(-2.07242e-06 -8.28127e-06 -2.6669e-06)
(-0.000127386 2.52133e-05 0.000183911)
(-0.000110618 3.39304e-05 0.000156428)
(-0.000160197 -1.78309e-05 0.000274293)
(-0.000139971 -2.38948e-05 0.000236113)
(-0.000102832 -6.19369e-06 0.000172656)
(-8.99687e-05 -9.24854e-06 0.000148601)
(-0.000156166 9.3667e-05 0.000466307)
(-0.000216374 0.000169318 0.000651542)
(7.33313e-06 -1.18435e-05 0.000188584)
(-1.3377e-06 -4.58472e-06 0.00015938)
(-0.000102164 2.75777e-05 0.000192982)
(-5.58052e-05 1.33268e-06 0.0001674)
(-0.000179951 -5.72797e-05 0.000490251)
(-0.00017959 -4.04204e-05 0.000490977)
(-0.000179455 -4.53272e-05 0.000525276)
(-0.000195139 -2.15676e-05 0.000526761)
(-0.000559829 1.76571e-06 -0.000151403)
(-0.000642414 2.47914e-06 -0.000183588)
(-2.27554e-05 -7.96786e-05 9.95788e-06)
(-2.65495e-05 -7.89425e-05 1.19239e-05)
(-2.14427e-05 -4.3873e-05 6.54958e-05)
(-2.5207e-05 -5.36625e-05 8.18371e-05)
(-2.90465e-05 -5.25574e-05 6.60933e-05)
(-2.32155e-05 -4.04605e-05 5.37541e-05)
(-1.54686e-05 -8.61463e-05 8.48782e-06)
(-1.98958e-05 -9.83539e-05 6.53325e-06)
(-2.34951e-05 -8.34769e-05 8.81933e-06)
(-2.18826e-05 -8.64845e-05 9.21271e-06)
(-2.31358e-05 -0.000128636 -1.56103e-05)
(-1.99742e-05 -0.000111411 -1.41258e-05)
(-7.64291e-06 -5.66219e-05 -3.31689e-06)
(-9.8788e-06 -5.05372e-05 -4.75771e-06)
(-6.09849e-05 -3.12452e-05 9.4554e-05)
(-5.57733e-05 -3.30712e-05 8.93545e-05)
(9.02397e-05 3.81557e-06 -0.00023354)
(9.83908e-05 -5.10751e-06 -0.000218231)
(-0.00013717 -5.95209e-05 -1.25088e-05)
(-0.000135993 -6.6511e-05 -1.47038e-05)
(-0.000298257 -4.80051e-05 0.000147163)
(-0.000320147 -5.21396e-05 0.000138563)
(-0.000291705 -7.46994e-05 -2.60585e-05)
(-0.000285086 -6.19055e-05 -3.52683e-05)
(-0.000174192 0.000192991 0.000237174)
(-0.00016807 0.000241571 0.000220277)
(-0.00024904 -4.48416e-05 1.31716e-05)
(-0.00013114 -4.67545e-05 -1.84862e-05)
(-0.000206819 -7.74926e-05 7.47035e-05)
(-0.000178188 -7.59145e-05 6.31694e-05)
(-0.000227684 -5.19107e-05 5.88399e-05)
(-6.74161e-05 -4.22697e-05 -7.10713e-06)
(-3.91073e-05 -2.09145e-05 6.05079e-05)
(-3.22272e-05 -1.93926e-05 5.58618e-05)
(0.000545395 -0.000213215 0.000412122)
(0.000500781 -0.000187576 0.000344131)
(0.00048113 -0.000266853 0.000227658)
(0.000455049 -0.000198182 0.000257879)
(0.000463717 -0.000229419 0.000256019)
(0.000232059 -0.000147613 0.000185515)
(0.000326615 -0.000205336 0.000216569)
(0.000255606 -0.000149564 0.000200107)
(0.000424205 -0.000190312 0.000348043)
(0.000446586 -0.000233009 0.000331425)
(0.000441526 -0.000228731 0.000288349)
(0.000340102 -0.000225302 0.000188922)
(0.000444178 -0.000276351 0.000188546)
(0.000370181 -0.000202945 0.000242756)
(0.000139383 -6.98388e-05 0.000160551)
(0.000225462 -0.000149011 0.000185314)
(0.000173685 -8.6485e-05 0.000180682)
(0.000128921 -5.43966e-05 0.00016483)
(7.37703e-05 4.76592e-05 0.000156005)
(0.000287423 0.000112411 4.15159e-05)
(0.00034889 0.000111595 9.32396e-05)
(0.000298251 7.45804e-05 0.000105853)
(0.000315834 5.93062e-05 4.46001e-05)
(0.000376445 6.32147e-05 9.617e-05)
(0.000340014 9.95653e-05 8.69737e-05)
(0.000305357 7.44935e-05 6.41769e-05)
(9.76451e-05 5.4219e-05 8.61073e-05)
(0.000114619 6.50143e-05 8.53304e-05)
(9.09073e-05 1.25192e-05 0.000138847)
(9.52906e-05 1.83298e-05 0.000137589)
(0.000108332 1.04656e-05 0.000160954)
(8.96465e-05 1.24841e-06 0.000144937)
(0.000100928 3.48072e-05 0.000134966)
(8.09979e-05 3.59218e-05 0.000103088)
(7.87468e-05 3.92045e-05 7.55597e-05)
(7.2999e-05 1.97341e-05 9.32911e-05)
(6.68584e-05 8.75408e-06 0.000108373)
(5.12631e-05 6.19656e-07 8.5966e-05)
(6.52749e-05 -4.52953e-06 0.00010418)
(5.6152e-05 1.73131e-05 7.28201e-05)
(4.81184e-05 1.50615e-05 6.20655e-05)
(5.18817e-05 1.35194e-05 7.07538e-05)
(0.000154085 9.29436e-05 4.4437e-05)
(0.00018588 0.00010287 6.36884e-05)
(0.000190186 9.29388e-05 7.48588e-05)
(0.000182146 8.79519e-05 4.3717e-05)
(0.000113424 6.70198e-05 7.32556e-05)
(0.000130609 7.62552e-05 4.84089e-05)
(0.000139604 8.21818e-05 2.80259e-05)
(0.000142157 6.99931e-05 3.93147e-05)
(0.000123919 6.76817e-05 4.40917e-05)
(0.000270903 0.000111093 3.41993e-05)
(0.000223012 0.000105451 3.17667e-05)
(0.000287857 0.00010213 4.83406e-05)
(0.000261905 7.42535e-05 3.34706e-05)
(0.000233834 9.76327e-05 2.01046e-05)
(0.000214193 7.35561e-05 2.61267e-05)
(8.05148e-05 4.78513e-05 5.20585e-05)
(8.66051e-05 4.58136e-05 5.76743e-05)
(6.89475e-05 3.36908e-05 6.46014e-05)
(0.000105608 6.46447e-05 4.49615e-05)
(5.92605e-05 2.76201e-05 5.60969e-05)
(7.10582e-05 4.35403e-05 3.51891e-05)
(0.000117406 6.36806e-05 5.45388e-05)
(0.000153981 8.01225e-05 2.31039e-05)
(7.63235e-05 5.10994e-05 8.21999e-06)
(8.87157e-05 4.86336e-05 2.60645e-05)
(7.75836e-05 5.01501e-05 2.02879e-05)
(0.000140375 8.3018e-05 5.84022e-06)
(0.000171919 8.6783e-05 -1.57319e-05)
(0.000155596 6.05304e-05 2.17723e-05)
(0.000151176 7.45916e-05 9.18306e-06)
(0.000314982 2.83841e-05 0.000550699)
(0.000353026 5.72994e-05 0.000640161)
(0.000320973 -1.31817e-06 0.000572565)
(0.000332653 2.89748e-05 0.000588709)
(0.000354202 9.90142e-05 0.000393353)
(0.000382681 0.000104214 0.000467075)
(0.000274269 9.42612e-05 0.00038432)
(0.00029927 8.84863e-05 0.000439971)
(0.000294542 0.000105818 0.000440231)
(0.000276029 8.75657e-05 0.000452701)
(0.000391195 0.000156425 0.000505186)
(0.000327902 0.000132336 0.000379274)
(0.000373178 0.000137922 0.000472531)
(0.000237429 8.9842e-05 0.000384906)
(0.000318126 0.000115624 0.000480678)
(0.000404684 0.000129301 0.000381837)
(0.000363396 0.000134501 0.000450957)
(0.000356087 0.000131161 0.000451692)
(0.000410537 0.000135462 0.000561424)
(0.000426106 0.000169563 0.000496502)
(0.000469228 0.000183572 0.00049391)
(0.000461607 0.00019171 0.000466442)
(0.000450906 0.000158853 0.000557355)
(0.00043551 0.000163413 0.00055724)
(0.000396682 7.26388e-05 0.000462502)
(0.000508256 7.81539e-05 0.000494225)
(0.000389561 9.1766e-05 0.000475915)
(0.000301913 9.38315e-05 0.000372594)
(0.000381141 9.03616e-05 0.000464849)
(0.000416566 7.02795e-05 0.000405304)
(0.000312574 5.56018e-05 0.00030474)
(0.000337758 0.000101412 0.000365778)
(0.000362107 8.34176e-05 0.000354507)
(0.000366237 9.34946e-05 0.000346249)
(0.000490304 -4.1594e-05 0.000429194)
(0.000504714 -5.94662e-05 0.000426883)
(0.000516359 -0.000137629 0.000414487)
(0.000403859 -6.24801e-05 0.000370093)
(0.000485751 -0.000118004 0.000325657)
(0.000381378 -9.28862e-06 0.000340583)
(0.000529577 -0.000128204 0.000354173)
(0.000362851 -2.79367e-05 0.000292641)
(0.000467996 -9.82047e-05 0.000284601)
(0.000547226 -0.000207283 0.000270624)
(0.000341949 5.77062e-05 0.000355376)
(0.000341566 8.57313e-05 0.00037343)
(0.000380857 2.46712e-05 0.000311219)
(0.000378441 6.40067e-05 0.000328624)
(0.000395688 0.000142302 0.000377434)
(0.000429812 0.000148187 0.000509684)
(0.000427754 0.000146196 0.000457176)
(0.000442139 0.000127249 0.000371533)
(0.000497728 0.000162307 0.00041531)
(0.000496935 0.000189963 0.000523512)
(0.000447143 0.000158271 0.000522472)
(0.000472451 0.000155787 0.000551613)
(0.000471502 0.000172355 0.000397901)
(0.000451633 0.00015892 0.000524246)
(0.000451834 0.000164022 0.000523027)
(0.000572448 0.000208261 0.000656797)
(0.000546034 0.000195768 0.000512823)
(0.000402037 0.000116759 0.000369152)
(0.000569984 0.000179597 0.000421064)
(0.000452712 0.000104446 0.000392632)
(0.000581864 0.000147007 0.00039889)
(0.000513509 0.000178123 0.000439403)
(0.000518343 0.000162994 0.000511197)
(0.000694515 0.000261716 0.0005238)
(0.000550301 0.000186939 0.00043297)
(0.000525721 0.000159718 0.000456296)
(0.000735116 0.000258764 0.000483531)
(0.000567862 0.000245528 0.000484133)
(0.000604356 0.000209211 0.000591825)
(0.000559734 0.000182071 0.000625098)
(0.000662523 0.00022607 0.000620744)
(0.000660226 0.000231442 0.000599442)
(0.000350047 0.000140321 0.000456087)
(0.000341609 0.000131066 0.000450443)
(0.000234878 7.05006e-05 0.000425372)
(0.000338652 0.000128575 0.000488494)
(0.000425932 0.000121222 0.000632261)
(0.000389623 0.00011159 0.000580782)
(0.000378183 0.000146433 0.000491776)
(0.000397699 0.000154394 0.000510857)
(0.000380866 0.000147519 0.00055994)
(0.000362205 6.23803e-05 0.000647631)
(0.000312915 4.31355e-05 0.000579535)
(0.000367426 0.000108674 0.000607611)
(0.000350187 9.54609e-05 0.000602854)
(0.000313246 4.25069e-05 0.000507203)
(0.000424193 0.000170522 0.000538022)
(0.000449027 0.000139074 0.000627458)
(0.000400611 0.0001226 0.000610614)
(0.000386177 -4.95607e-06 0.000637569)
(0.00047564 0.000144268 0.000711184)
(0.000357545 5.95921e-05 0.000604882)
(0.000463271 0.000186249 0.000524311)
(0.000502203 0.000195125 0.000562777)
(0.000447392 0.000141105 0.000624766)
(0.000438073 0.000175565 0.000559603)
(0.000506197 0.000204483 0.000563448)
(0.000503105 0.000127288 0.00069514)
(0.000513398 0.000144849 0.00078225)
(0.000409212 4.78941e-05 0.000674408)
(0.000375449 4.61199e-05 0.000614665)
(0.000407351 7.77666e-05 0.000648839)
(0.000462635 0.000130046 0.000689629)
(0.000394974 7.44484e-05 0.000607221)
(0.00051383 0.000219453 0.000602144)
(0.000512626 0.000105759 0.000749817)
(0.000592616 0.000191601 0.000852249)
(0.000282041 1.16753e-05 0.000492459)
(0.000293245 5.54e-05 0.000501274)
(0.000357703 0.000131795 0.000559676)
(0.000376515 8.37826e-05 0.000637713)
(0.0003548 2.62553e-05 0.000588358)
(0.000437675 9.36064e-05 0.000695094)
(0.000335884 -1.21672e-05 0.000567952)
(0.000337967 4.02938e-05 0.000559265)
(0.000431235 0.000143455 0.000677949)
(0.000359918 4.59026e-05 0.00061248)
(0.00031479 3.71173e-05 0.000528263)
(0.000383136 -4.67507e-06 0.000632209)
(0.000332757 4.29036e-05 0.00055889)
(0.000353875 4.60288e-05 0.000583503)
(0.000430168 4.28713e-05 0.000702795)
(0.000336136 8.75276e-05 0.000578072)
(0.000335067 5.98905e-05 0.000564884)
(0.000427413 -5.76071e-05 0.000655244)
(0.000479017 0.0001291 0.000754119)
(0.000411972 -2.13127e-05 0.00069356)
(0.000524239 6.56543e-05 0.000857212)
(0.000400207 1.27087e-05 0.000668606)
(0.000420456 3.53294e-05 0.000685139)
(0.000529686 0.000160035 0.000769177)
(0.000424639 5.37432e-05 0.000678881)
(0.000485337 3.53729e-05 0.000772734)
(0.000522964 4.52376e-05 0.000857004)
(0.00053304 1.93898e-05 0.000855743)
(0.000420457 3.57146e-05 0.000673878)
(0.000475455 4.16466e-05 0.000754448)
(0.000425134 1.51729e-05 0.000675199)
(0.000485008 4.92809e-05 0.000767618)
(0.000547347 0.000176028 0.000684832)
(0.000535698 0.000192717 0.000612688)
(-2.10048e-05 -4.91121e-05 0.000160205)
(0.000566104 0.000154357 0.000774831)
(0.000492344 0.000139851 0.000663758)
(0.000615475 0.000227745 0.00066391)
(0.000574535 0.00022188 0.000599896)
(0.000609862 0.00021484 0.000673745)
(-2.52624e-05 -4.87876e-05 0.000159645)
(0.000543857 0.000173279 0.000710395)
(0.000563697 0.000208626 0.000656993)
(0.000610876 0.000229452 0.000685076)
(0.00055585 0.000168498 0.000764351)
(0.000625048 0.000178539 0.000912195)
(-2.29031e-05 -4.8569e-05 0.000156925)
(0.000468882 7.26056e-05 0.000727661)
(0.000433509 6.32907e-05 0.000710221)
(0.000467195 9.70688e-05 0.00070555)
(0.000526737 5.98999e-05 0.000795548)
(0.00046416 0.000107272 0.00070267)
(-2.53729e-05 -3.80818e-05 0.000159937)
(0.000575946 0.000236344 0.000662821)
(0.000594603 0.000121726 0.000836841)
(0.000682 0.000217127 0.000929803)
(0.000656015 0.000219282 0.000773232)
(0.000714864 0.000252399 0.000647936)
(0.000771729 0.000284942 0.000655724)
(0.000645661 0.000190707 0.000832795)
(0.000604149 0.000175518 0.00074544)
(0.000633427 0.000257647 0.000626367)
(0.000667152 0.000237334 0.000678592)
(0.000642058 0.000203916 0.000758777)
(0.0007115 0.000245168 0.000809267)
(0.0007367 0.000283162 0.000776016)
(0.000657556 0.000204834 0.000836338)
(0.000684656 0.000171706 0.000940276)
(0.000561583 0.000137712 0.000782974)
(0.000626083 0.000139865 0.000973982)
(0.000509403 0.000104996 0.000751831)
(0.00058713 8.11541e-05 0.000888253)
(0.000729923 0.000241353 0.000925111)
(0.000606075 0.000196361 0.000765749)
(0.000644985 0.000168814 0.000920266)
(0.000537273 8.9908e-05 0.000866845)
(0.000556929 0.000150155 0.000788069)
(0.000728563 0.000132287 0.00102262)
(0.000640455 0.000146523 0.000994156)
(0.000591069 6.60622e-05 0.000949005)
(0.000592441 2.01189e-05 0.000943721)
(0.000474691 2.9386e-05 0.000787792)
(0.000467241 6.57867e-05 0.000733448)
(0.000601869 0.000119978 0.000871033)
(0.000614475 0.000126753 0.000960251)
(0.000577256 2.77899e-05 0.000904338)
(0.00059325 3.85282e-05 0.000934399)
(0.00060254 -3.91914e-05 0.000936567)
(0.000584012 3.90763e-05 0.000894109)
(0.000668906 0.00013208 0.000971205)
(-3.13461e-05 -4.31804e-05 0.000168324)
(0.000501025 -2.10381e-06 0.000820737)
(0.000455982 5.67456e-05 0.000718172)
(0.000649397 0.000150472 0.0009569)
(0.000676458 0.00019018 0.00101377)
(0.00056498 -1.61492e-06 0.000944146)
(0.000703371 6.30366e-05 0.00111084)
(0.000526067 4.15029e-05 0.000827793)
(0.000649559 2.98797e-05 0.000996476)
(0.000519243 5.23976e-05 0.000821648)
(0.000500155 -1.88626e-05 0.000761949)
(0.000642416 -9.01843e-05 0.000952538)
(0.000688551 3.21988e-05 0.00109147)
(0.000689321 7.40884e-07 0.00108061)
(0.000367764 -5.08168e-05 0.000535251)
(0.000289793 2.00163e-05 0.00044969)
(0.000324638 9.77361e-06 0.000466349)
(0.000314074 9.95719e-06 0.000480787)
(0.000225858 4.08516e-05 0.000403917)
(0.000300092 2.8179e-05 0.000465051)
(0.000383638 3.10875e-06 0.000498789)
(0.00030084 4.6748e-05 0.000470301)
(0.00034961 4.49451e-05 0.000621138)
(0.000351262 6.20149e-05 0.000595752)
(-2.31157e-05 -4.182e-05 0.000153504)
(-2.67835e-05 -4.38526e-05 0.000160401)
(-2.47838e-05 -4.05192e-05 0.000148582)
(-2.62662e-05 -3.68415e-05 0.000149444)
(0.000392325 3.32053e-05 0.000613903)
(0.000355037 7.54446e-05 0.000562874)
(0.000422845 1.48076e-05 0.000567507)
(0.000379421 3.21448e-05 0.000510256)
(0.000397561 -1.31396e-05 0.000513236)
(0.000394245 3.91938e-06 0.000484434)
(-2.97079e-05 -3.6232e-05 0.00015482)
(0.00041628 1.93261e-06 0.000536212)
(-3.50304e-05 -2.89047e-05 0.000164895)
(-3.01233e-05 -3.46133e-05 0.000155912)
(0.00044659 1.17587e-05 0.000222801)
(0.000444023 1.57632e-05 0.000270881)
(0.000423046 -1.44118e-05 0.000257297)
(-3.34632e-05 -3.44574e-05 0.000153938)
(-2.65161e-05 -3.83358e-05 0.000164567)
(-2.59121e-05 -4.18749e-05 0.000161111)
(-3.23151e-05 -3.37791e-05 0.000175002)
(-3.38562e-05 -4.23168e-05 0.000182608)
(-2.96993e-05 -3.03033e-05 0.000166617)
(-2.85631e-05 -2.62554e-05 0.000159421)
(-3.46605e-05 -3.44958e-05 0.000159008)
(0.000395291 6.34863e-05 7.22938e-05)
(0.000456213 6.40757e-05 0.00013764)
(0.000375292 3.27847e-05 8.04381e-05)
(0.000360722 6.63574e-05 5.85189e-05)
(0.000376092 4.67941e-05 8.20631e-05)
(0.000437377 1.07893e-05 0.000125806)
(0.00042308 1.21609e-05 0.000187591)
(0.000449344 -3.07387e-05 0.000195973)
(0.000443097 2.48755e-07 0.000162316)
(0.00042319 -6.90959e-07 0.000204225)
(0.000412121 2.85331e-05 8.90769e-05)
(0.000429841 -8.84281e-06 9.56227e-05)
(0.000436946 -9.29872e-06 0.000385944)
(0.000414748 5.4785e-06 0.000420724)
(0.000401495 -2.37032e-06 0.000437746)
(0.00036341 5.55853e-06 0.000420884)
(0.000394653 3.16838e-06 0.000462025)
(0.000331891 2.46994e-05 0.000429644)
(0.000463326 -5.03351e-06 0.000415132)
(0.000469501 -2.58795e-05 0.000355458)
(0.000473404 -1.53354e-05 0.000340925)
(0.000413739 -4.89066e-06 0.000354475)
(0.00039336 -2.3167e-05 0.000444212)
(0.000408758 -1.49484e-05 0.000399204)
(0.000434689 2.22025e-05 0.000515084)
(0.00050237 -3.62955e-05 0.000248389)
(0.000463366 -5.21918e-05 0.000333184)
(0.000474174 -5.33608e-05 0.000280152)
(0.000487716 -3.47359e-05 0.000353918)
(0.000522553 -8.77852e-05 0.00022867)
(0.000461497 -5.00625e-05 0.000385903)
(0.000429104 -4.40069e-05 0.000449006)
(0.000469 -7.17177e-05 0.000430279)
(0.000472819 -1.58658e-05 0.000519875)
(0.000554209 -0.000102984 0.000409173)
(0.000512948 -0.000102774 0.000337482)
(0.000525023 -9.2683e-05 0.000273954)
(0.000509895 -6.95197e-05 0.000343823)
(0.000456643 -4.9919e-05 0.000177467)
(0.000453642 -4.07194e-05 0.000141667)
(0.000485527 -4.39418e-05 0.000182166)
(0.00033269 7.49121e-05 2.87526e-05)
(0.000342622 5.71524e-05 5.56845e-05)
(0.000295864 8.37104e-05 7.6039e-06)
(0.000319828 6.97758e-05 2.60824e-05)
(0.00036368 3.11163e-05 4.78407e-05)
(0.000408655 -1.66878e-06 7.04008e-05)
(0.000335755 4.5471e-05 4.70902e-05)
(0.000226921 8.2574e-05 -3.34449e-06)
(0.000309017 8.94627e-05 1.33132e-05)
(0.000143551 7.04257e-05 3.76755e-05)
(0.000154202 6.73111e-05 1.38739e-05)
(0.000256067 9.70694e-05 7.18147e-06)
(0.000270055 7.18647e-05 4.24734e-05)
(0.00024835 3.98564e-05 -1.70589e-05)
(0.000291036 4.85091e-05 2.6886e-05)
(0.000349973 3.78218e-05 1.85963e-05)
(0.000246258 7.67211e-05 5.5881e-06)
(0.00023563 5.48209e-05 1.04832e-05)
(0.00031349 5.44547e-05 1.68802e-05)
(0.000586652 -0.000137898 0.000193905)
(0.000570186 -0.000141272 0.000348595)
(0.000557535 -0.000138571 0.000275672)
(0.000582551 -0.000127605 0.000353083)
(0.000464784 -3.02235e-05 0.0001095)
(0.000507215 -0.000103608 0.000173569)
(0.000466727 -5.4144e-05 0.000151363)
(0.000471234 -7.53976e-05 0.000154426)
(0.000421453 -1.76094e-05 6.70695e-05)
(0.00045701 -5.93699e-05 0.000101485)
(0.000543395 -0.000111127 0.000138012)
(0.000587713 -0.000130384 0.00017274)
(0.000615704 -0.000198514 0.000243011)
(0.000577989 -0.000137552 0.000165541)
(0.000553007 -0.000146717 0.000195537)
(0.000386015 1.63331e-05 4.073e-05)
(0.000397264 -8.36687e-06 3.958e-05)
(0.000427014 -5.7944e-05 9.61515e-05)
(0.000398878 -8.34112e-06 6.93981e-05)
(0.000414902 -3.60667e-05 5.82803e-05)
(0.000327996 3.34285e-05 4.48029e-05)
(0.000374981 -5.0626e-06 4.14512e-05)
(0.000552349 -0.000103085 9.971e-05)
(0.000583053 -0.000158564 0.00011697)
(0.000602382 -0.00015869 0.000108668)
(0.000465532 -7.00698e-05 0.000109665)
(0.000428465 -3.2608e-05 0.000122676)
(0.000477545 -6.97149e-05 8.88376e-05)
(0.000308153 5.43944e-05 0.00052661)
(0.000326779 3.55118e-05 0.000543307)
(0.000369835 -1.53776e-05 0.000580207)
(0.000368535 7.29581e-06 0.000572293)
(0.000314732 7.35624e-05 0.000531545)
(0.000356776 7.30911e-06 0.000540293)
(0.000455871 -2.70155e-05 0.000679957)
(0.00032659 2.80045e-05 0.000534067)
(0.000358048 1.50429e-05 0.000553304)
(0.000414902 2.54077e-05 0.000638769)
(0.000406363 -1.34275e-05 0.000563065)
(0.000373641 1.05781e-05 0.000526949)
(0.000418046 1.61355e-05 0.000598445)
(0.000485143 -1.87728e-05 0.000688989)
(0.000491603 1.90227e-05 0.000809329)
(0.000368997 4.8673e-05 0.00059123)
(0.000423039 4.87994e-05 0.00068445)
(0.000405549 5.10007e-05 0.000678598)
(0.000433882 1.99299e-06 0.000665751)
(0.000575591 -6.93826e-05 0.000813308)
(0.000532428 -0.000117665 0.000709904)
(0.000441077 6.17555e-05 0.000717608)
(0.000461287 -1.61587e-05 0.000678757)
(0.000414154 3.88741e-06 0.00058226)
(0.000467951 5.45274e-06 0.000665291)
(0.000456555 -4.20076e-05 0.000567425)
(0.000414114 -3.33034e-05 0.000491902)
(0.000464543 -1.51674e-05 0.000590726)
(-3.62063e-05 -2.99893e-05 0.000160888)
(0.000531424 -0.000113899 0.00063249)
(0.000502616 -8.23777e-05 0.0005341)
(0.000545964 -3.26076e-05 0.000662486)
(0.000431707 -2.61412e-05 0.000615797)
(0.0005015 -5.98541e-05 0.000633746)
(0.000569394 -4.6471e-05 0.000743125)
(0.000520187 -0.00011083 0.000521174)
(0.000513646 -0.000103246 0.00043562)
(0.000498196 -4.63546e-05 0.000541384)
(0.000635529 -4.30409e-05 0.000968787)
(0.000444493 3.07107e-06 0.00067919)
(-3.63546e-05 -2.582e-05 0.000148709)
(0.000474753 -2.57528e-05 0.000676438)
(0.000549162 -1.64887e-05 0.000800739)
(0.000620605 -9.27836e-05 0.000870443)
(0.000635766 -0.000137381 0.000803755)
(0.00046764 -7.07157e-05 0.00057931)
(-4.14704e-05 -2.12626e-05 0.000160463)
(0.000581163 -0.000215502 0.000533221)
(0.00060393 -8.5437e-05 0.000721602)
(0.000610854 -0.000106262 0.000826724)
(0.000541895 -0.000113981 0.000678046)
(0.000601645 -7.27825e-05 0.00079366)
(0.000666759 -0.000151331 0.000771113)
(0.000599285 -0.00014033 0.000614288)
(0.000729806 -0.000252913 0.000781594)
(0.000654528 -0.00026464 0.000601699)
(0.000681028 -0.000182546 0.000757649)
(0.000480479 1.26784e-05 0.000751206)
(0.000485409 -4.31134e-05 0.000707637)
(0.000596986 -5.81643e-05 0.000860926)
(0.000639193 -6.32694e-05 0.000952876)
(0.000628062 -0.000161886 0.000867463)
(0.000577195 1.47549e-05 0.000864867)
(0.000653688 -0.000118894 0.000972666)
(0.00061871 5.06974e-05 0.000963473)
(0.000579961 -7.04853e-05 0.000853774)
(0.000570711 -0.000107176 0.000789347)
(0.000681031 -0.000144157 0.000933971)
(0.000564714 -0.000123635 0.000770786)
(0.000619575 -0.000180267 0.000741186)
(0.00070045 -0.000161749 0.000882665)
(0.000798734 -0.000252706 0.000942221)
(0.000615998 -0.000246781 0.000689986)
(0.000734826 -0.000354097 0.000622899)
(0.000743056 -0.000200244 0.000831593)
(0.0006181 -0.000181318 0.000417564)
(0.00051442 -0.000176622 0.000444565)
(0.00060198 -0.000192854 0.000452151)
(0.000584683 -9.70616e-05 0.000593917)
(0.000640922 -0.00017661 0.000594004)
(0.000642576 -0.000217787 0.000410252)
(0.000591769 -0.000206626 0.000362383)
(0.000659939 -0.000216817 0.000254253)
(0.000596451 -0.000163159 0.000348203)
(0.000689533 -0.000254419 0.000420123)
(0.000703875 -0.000299177 0.000290699)
(0.000684695 -0.000246734 0.000391213)
(0.000712479 -0.000266603 0.000595587)
(-4.41864e-05 -1.70984e-05 0.000158705)
(0.000685653 -0.000314488 0.000439124)
(0.000689728 -0.000235234 0.000584681)
(0.000812672 -0.000382496 0.000698364)
(0.000795982 -0.000411502 0.000472956)
(0.000743576 -0.000279695 0.000642222)
(-4.74739e-05 -1.24144e-05 0.000160013)
(0.000774595 -0.000367509 0.000476171)
(0.000814248 -0.000380276 0.000345806)
(-3.59769e-05 -3.43389e-05 0.000183096)
(0.000708328 -0.000277291 0.000448402)
(0.000640456 -0.000216122 0.000262328)
(-4.00256e-05 -2.70579e-05 0.000186343)
(0.000650743 -0.0001933 0.000221845)
(0.00063457 -0.000208555 0.000228406)
(-3.42669e-05 -3.41689e-05 0.000168412)
(0.000706806 -0.000204556 0.000174116)
(-3.74163e-05 -1.67271e-05 0.000169764)
(-4.07034e-05 -2.86386e-05 0.000183199)
(0.000729146 -0.000326072 0.000245333)
(0.000679052 -0.00024474 0.000219459)
(-4.18571e-05 -2.72187e-05 0.000182855)
(0.000674269 -0.000250593 0.000274284)
(0.000398535 -0.000236925 0.000221168)
(-4.53893e-05 -1.98024e-05 0.00017815)
(0.000462113 -0.000285886 0.000179784)
(0.000369106 -0.000230148 0.000176881)
(-4.4413e-05 -2.04505e-05 0.000182273)
(0.000267616 -0.00017112 0.00018186)
(0.000336149 -0.000222019 0.000184063)
(-4.83018e-05 -1.30737e-05 0.000190974)
(0.000242688 -0.000164315 0.000150625)
(0.000294526 -0.000167939 0.000228529)
(-3.71465e-05 -1.96301e-05 0.000164311)
(-3.36598e-05 -1.74144e-05 0.000151556)
(0.000340038 -0.000207777 0.000179134)
(-3.9284e-05 -2.38007e-05 0.000154018)
(-4.11383e-05 -1.82288e-05 0.000168292)
(0.000165254 -9.8844e-05 0.000149553)
(-3.95928e-05 -1.58554e-05 0.000152884)
(-4.35099e-05 -1.32396e-05 0.000166675)
(0.000224833 -0.000145831 0.00017091)
(-4.21075e-05 -1.26315e-05 0.000151051)
(0.000152279 -9.42843e-05 0.000131233)
(8.25303e-05 -3.72565e-05 9.99359e-05)
(0.000139692 -7.35322e-05 0.000150474)
(9.75371e-05 -3.71051e-05 0.000119476)
(6.57366e-05 -2.40664e-05 8.67651e-05)
(0.000109623 -4.56538e-05 0.000128126)
(7.71459e-05 -4.38429e-05 8.24985e-05)
(0.000167415 -8.58235e-05 0.000170065)
(0.000206178 -0.000114696 0.000169223)
(0.000219233 -0.000183639 8.66283e-05)
(0.000354834 -0.000259584 0.000118295)
(0.000251308 -0.00017075 0.000141778)
(9.52839e-05 -7.1108e-05 6.79796e-05)
(0.000209942 -0.000165651 0.000103892)
(0.00015137 -0.000103241 0.000115625)
(0.000107703 -7.02608e-05 0.000102191)
(0.00015046 -9.40492e-05 0.000133377)