/*--------------------------------*- C++ -*----------------------------------*\
  =========                 |
  \\      /  F ield         | OpenFOAM: The Open Source CFD Toolbox
   \\    /   O peration     | Website:  https://openfoam.org
    \\  /    A nd           | Version:  7
     \\/     M anipulation  |
\*---------------------------------------------------------------------------*/
FoamFile
{
    version     2.0;
    format      ascii;
    class       volVectorField;
    location    "50";
    object      wallShearStress;
}
// * * * * * * * * * * * * * * * * * * * * * * * * * * * * * * * * * * * * * //

dimensions      [0 2 -2 0 0 0 0];

internalField   uniform (0 0 0);

boundaryField
{
    wall
    {
        type            calculated;
        value           nonuniform List<vector> 
73765
(
(7.11474e-11 -2.45434e-11 -5.40752e-11)
(2.70986e-10 2.97938e-11 2.46622e-10)
(-1.3386e-10 -4.56871e-11 8.47364e-12)
(-1.30419e-10 -2.6167e-10 1.7114e-10)
(-5.12997e-10 -1.05175e-09 4.65648e-10)
(-2.76107e-11 3.80907e-11 1.94174e-10)
(-5.41697e-10 -1.57544e-10 6.11813e-10)
(-1.13542e-10 -2.23625e-11 1.0491e-10)
(-4.40903e-10 -1.38796e-09 1.93232e-10)
(-2.0033e-11 4.85429e-11 3.09797e-10)
(-1.55103e-10 2.75269e-11 4.53147e-10)
(2.12988e-10 5.01872e-10 7.14628e-11)
(9.86717e-11 5.8625e-10 3.84482e-10)
(-1.49498e-10 -1.99086e-10 1.58806e-10)
(-2.89285e-10 -4.17066e-10 2.37318e-10)
(-1.03224e-09 -1.2013e-09 6.64944e-10)
(-7.21688e-10 -7.27853e-10 7.31209e-10)
(-5.29684e-10 -1.11665e-09 2.39932e-10)
(-8.81871e-11 -1.3618e-09 -3.36585e-12)
(-7.28829e-11 -1.30633e-09 1.77356e-10)
(-2.75331e-10 -1.28108e-09 4.62519e-10)
(-1.63168e-10 -1.06499e-09 6.40853e-11)
(-4.41922e-10 -8.98975e-10 2.41908e-10)
(-2.28737e-10 -8.01595e-10 1.69357e-11)
(-2.05986e-11 6.81415e-11 1.70197e-10)
(6.99003e-13 4.5655e-11 1.01456e-10)
(2.48516e-10 2.10311e-11 4.7179e-10)
(4.68248e-10 -2.84023e-10 -2.1721e-10)
(2.10841e-11 9.097e-12 -7.69679e-12)
(-1.21925e-10 -6.78696e-12 1.50976e-11)
(-1.1923e-10 2.69099e-12 2.53408e-11)
(-1.03051e-10 -3.81738e-11 -7.91574e-12)
(-1.77528e-10 -9.00163e-11 1.41675e-10)
(-7.74936e-11 -1.07394e-09 -2.45132e-10)
(-3.80661e-10 -1.71453e-09 -1.79315e-11)
(8.48111e-11 -9.70388e-10 2.21385e-12)
(-1.37484e-09 -1.72218e-09 7.17583e-10)
(-4.26274e-10 -1.04668e-09 2.46076e-10)
(-1.10461e-09 -1.48015e-09 9.14217e-10)
(2.69677e-11 1.41058e-11 8.79399e-11)
(1.71417e-12 8.30431e-11 1.88958e-10)
(4.95877e-11 -1.50355e-13 1.00095e-10)
(1.00337e-11 1.43377e-11 1.0274e-10)
(1.58555e-10 1.10686e-10 5.12996e-10)
(1.65079e-10 9.1226e-11 3.91736e-10)
(2.30291e-10 7.44487e-11 4.0626e-10)
(5.22878e-10 -2.28326e-10 -1.75773e-10)
(3.61006e-10 -2.24121e-10 -9.01863e-11)
(-2.30803e-10 -1.25397e-10 6.24539e-10)
(-2.49462e-10 -7.46416e-11 5.30251e-10)
(-1.11942e-10 -1.08868e-10 1.37647e-10)
(-2.9435e-10 -4.53244e-11 -1.15031e-10)
(9.01574e-11 4.62882e-11 5.81881e-11)
(-1.86451e-10 -2.36967e-11 7.18703e-11)
(-4.02501e-10 -6.05713e-10 3.02694e-10)
(-2.13575e-10 -3.60014e-10 2.27958e-10)
(-2.36066e-10 -4.80071e-10 3.4501e-10)
(6.31237e-11 -5.07831e-11 2.20464e-10)
(7.39923e-11 -1.35668e-10 1.77014e-10)
(2.88715e-10 -1.82276e-09 -1.10498e-10)
(2.08694e-10 -1.28795e-09 -7.779e-11)
(1.29779e-10 -1.19814e-09 -6.26823e-11)
(-7.50196e-10 -1.7747e-09 1.48098e-11)
(-2.62883e-10 -1.70562e-09 -1.03497e-10)
(-1.744e-11 1.01758e-11 -1.81477e-12)
(1.75483e-11 6.99001e-12 -8.74725e-12)
(2.04426e-11 1.01665e-11 -1.10493e-11)
(1.7778e-11 1.16891e-11 -1.29005e-11)
(1.15018e-11 1.53653e-11 -1.63102e-11)
(1.89793e-10 -1.24355e-09 6.28025e-11)
(-6.57914e-10 -1.35079e-09 3.34489e-10)
(-4.03776e-10 -1.35445e-09 8.34542e-11)
(-1.07783e-09 -1.3816e-09 3.99413e-10)
(-1.02846e-09 -1.60412e-09 5.0382e-10)
(-7.51261e-10 -1.0725e-09 2.1979e-10)
(-5.54174e-10 -8.90779e-10 2.60906e-10)
(-6.17883e-10 -1.19174e-09 7.79867e-11)
(-8.93901e-10 -8.22792e-10 8.28965e-10)
(-1.18299e-09 -1.31056e-09 6.17654e-10)
(-6.03477e-10 -7.72683e-10 8.31744e-10)
(-4.74665e-10 -6.50403e-10 5.73065e-10)
(-1.31655e-10 -1.34957e-09 5.45209e-11)
(-2.47798e-10 -9.9539e-10 1.12068e-10)
(-4.04239e-10 -1.55534e-09 1.15392e-09)
(-3.04938e-10 -1.66425e-09 1.1133e-09)
(-4.39579e-10 -1.28027e-09 7.61499e-10)
(-3.81905e-10 -1.29365e-09 5.45377e-10)
(-1.96178e-10 -9.8895e-10 1.11225e-10)
(-1.00749e-09 -1.83672e-09 1.30962e-09)
(-5.27262e-10 -8.88533e-10 2.38133e-10)
(-5.04112e-10 -1.21833e-09 3.20884e-10)
(2.09739e-10 2.30313e-11 5.1776e-10)
(-8.73116e-11 1.63415e-11 4.55173e-10)
(-1.5705e-10 -1.61055e-09 -7.94855e-11)
(2.83875e-10 -1.67617e-09 -1.33997e-10)
(-3.70081e-10 -1.90776e-09 -4.5857e-11)
(-1.41258e-10 -4.861e-11 6.74066e-10)
(-8.7771e-11 -1.17054e-10 6.25859e-10)
(-1.26989e-10 -2.94935e-11 2.33309e-11)
(-1.44495e-10 -1.08307e-09 7.86188e-11)
(5.36792e-12 3.94883e-11 9.10226e-11)
(-1.26205e-10 -7.15112e-11 5.2186e-10)
(-4.08323e-10 8.38063e-11 -1.74239e-10)
(-2.44198e-10 1.95937e-11 -7.24391e-11)
(3.87406e-10 7.65917e-10 4.66958e-10)
(6.72764e-10 6.76056e-10 6.60476e-10)
(-1.24794e-10 -5.72898e-11 -7.57046e-12)
(-1.79052e-10 -1.31855e-10 1.43305e-10)
(-1.56745e-10 -1.25672e-10 1.49883e-10)
(-9.62851e-11 3.96809e-12 5.22878e-12)
(-1.37878e-10 -1.11216e-11 3.32574e-11)
(1.35598e-10 -5.18061e-10 -3.20077e-11)
(-1.56122e-10 -1.25808e-09 -2.37298e-10)
(-1.1863e-10 -9.85086e-10 -2.19576e-10)
(-2.20692e-10 -1.50974e-09 -1.91785e-10)
(4.10561e-11 -8.41146e-11 1.86046e-10)
(-1.1343e-11 1.25223e-11 -1.1031e-11)
(-2.02839e-10 -7.85338e-10 -5.0113e-12)
(-6.13824e-10 -1.61196e-09 3.23538e-10)
(-4.46078e-10 -1.34018e-09 6.96163e-10)
(3.02096e-10 2.5433e-11 2.63344e-10)
(3.89962e-10 -1.10764e-10 2.30873e-11)
(3.95247e-10 -2.77788e-10 -1.30121e-10)
(-1.79408e-10 -5.44886e-11 1.08055e-10)
(-1.97097e-10 -1.33557e-09 -2.31368e-10)
(-1.63805e-10 -1.00376e-09 -2.15238e-10)
(-2.69307e-11 -8.17013e-10 -2.05039e-11)
(-3.86315e-10 -1.75296e-09 9.39543e-12)
(-9.20135e-10 -1.50698e-09 6.31795e-10)
(-1.11189e-10 -8.59459e-10 2.40585e-12)
(-1.95412e-10 -8.28957e-10 -3.81036e-11)
(-2.6552e-11 6.68794e-11 2.54741e-10)
(-4.56516e-12 7.35722e-11 1.74928e-10)
(2.68689e-10 4.95863e-11 3.14825e-10)
(2.3181e-10 3.59732e-11 3.36334e-10)
(5.99022e-10 -2.20352e-10 -1.4309e-10)
(5.81201e-10 -2.08516e-10 -7.44528e-11)
(4.6725e-10 -1.56431e-10 -3.0281e-11)
(4.74114e-10 -2.47917e-10 -3.48649e-11)
(4.16892e-10 -1.69171e-10 -5.44873e-11)
(4.69092e-10 -2.39625e-10 -1.05159e-10)
(4.4275e-10 -1.7e-10 -4.00044e-11)
(3.30123e-10 -1.00702e-10 -3.49218e-11)
(2.59561e-10 -1.12387e-10 -4.15688e-11)
(3.36933e-10 -1.75943e-10 -5.63416e-11)
(3.0992e-10 -1.79893e-10 -3.00237e-11)
(3.26507e-10 -1.82642e-10 -1.68638e-10)
(-2.23399e-10 -1.15476e-10 6.31902e-10)
(-2.1941e-10 -1.04528e-10 5.98835e-10)
(1.75922e-11 -1.31416e-11 -7.67773e-12)
(-9.97319e-10 9.12282e-10 5.88249e-09)
(-2.86362e-10 -4.62546e-11 -1.05468e-10)
(-3.06376e-10 -6.44576e-11 -1.50099e-10)
(6.03082e-10 6.12054e-10 3.55997e-10)
(4.03425e-10 6.76538e-10 9.03869e-11)
(8.42026e-10 6.30299e-10 2.549e-10)
(4.74292e-10 8.20678e-10 3.62255e-10)
(7.6883e-10 7.65758e-10 5.73989e-10)
(7.26148e-10 6.78846e-10 4.12045e-10)
(-1.45872e-10 -3.37708e-11 2.93556e-11)
(-1.75461e-10 -1.18337e-10 2.98583e-11)
(-1.92351e-10 -1.20199e-10 5.8312e-11)
(-1.32754e-10 -5.63264e-11 1.63981e-11)
(-9.96277e-11 1.71583e-11 3.00048e-11)
(-1.64841e-10 -1.81867e-10 2.16488e-11)
(-1.67173e-10 -2.50986e-10 1.80923e-10)
(-1.61601e-10 -1.35155e-10 9.70343e-12)
(-1.61848e-10 -1.97932e-10 3.5674e-11)
(-1.74037e-10 -2.06424e-11 9.81569e-11)
(-1.86529e-10 -3.1676e-11 4.88025e-11)
(-1.79647e-10 -4.0734e-11 7.32878e-11)
(-1.48777e-10 1.18386e-11 1.03236e-10)
(-1.72073e-10 -1.72304e-11 7.36622e-11)
(-1.82753e-10 -5.7667e-11 3.19507e-11)
(-1.48999e-10 -1.2174e-10 1.37844e-10)
(-2.10054e-10 -1.06863e-10 7.50856e-11)
(-1.04377e-10 -1.30691e-11 8.34556e-12)
(-3.7964e-10 -6.37314e-10 4.50157e-10)
(-1.37348e-10 -2.00203e-10 -2.76883e-11)
(1.05472e-10 -3.79949e-10 1.08578e-10)
(-1.07573e-10 -7.8849e-10 -1.72223e-10)
(-8.33882e-12 -6.56036e-10 1.8353e-11)
(9.77322e-11 -3.78026e-10 1.31864e-10)
(-1.50926e-10 -8.6233e-13 1.11502e-10)
(-1.74438e-10 -1.15275e-11 1.14073e-10)
(-8.1362e-11 6.07215e-13 1.23544e-10)
(-1.73369e-10 -3.92623e-11 1.27664e-10)
(-1.54059e-10 -9.23792e-11 1.2665e-10)
(-1.42007e-10 -5.59352e-11 3.48946e-11)
(-9.11966e-11 -1.61435e-10 1.83242e-10)
(-2.44941e-10 -2.18449e-09 -4.01276e-10)
(-8.16941e-11 -8.03284e-10 -1.21895e-10)
(-7.95874e-11 -2.51745e-12 1.42416e-10)
(1.05614e-10 -9.99759e-10 -1.05252e-10)
(-5.37801e-10 -2.44566e-09 -1.08362e-10)
(-1.8482e-10 -1.49504e-09 -1.48558e-10)
(-7.40689e-10 -1.63941e-09 7.20284e-12)
(-7.38428e-10 -1.78675e-09 1.25005e-11)
(1.48644e-11 1.32832e-11 -1.51168e-11)
(-1.32243e-09 -1.69374e-09 3.66534e-10)
(-1.00356e-09 -1.6917e-09 7.60845e-10)
(-6.76941e-10 -1.89994e-09 3.28105e-10)
(-5.01973e-10 -1.36447e-09 6.625e-11)
(-1.24024e-09 -1.72854e-09 1.16697e-09)
(-5.90158e-10 -7.6961e-10 3.9264e-10)
(-1.34293e-09 -1.8056e-09 6.23005e-10)
(-1.59934e-10 -1.36753e-09 2.3286e-10)
(-4.35251e-11 -8.14938e-10 5.95186e-11)
(-1.68909e-10 -1.74235e-09 3.67575e-10)
(-8.95286e-11 -1.15655e-09 2.19421e-11)
(-8.18071e-10 -1.26841e-09 3.97128e-10)
(-9.25077e-10 -1.81335e-09 5.61783e-10)
(-7.53825e-10 -1.38014e-09 4.20812e-10)
(-1.34681e-10 7.80661e-11 5.81559e-10)
(-1.50751e-10 -1.36693e-11 -8.01164e-12)
(-8.64129e-11 3.01613e-12 4.94802e-10)
(-2.15871e-10 -2.00461e-09 -4.05535e-10)
(-4.89316e-10 -1.75868e-09 2.51063e-11)
(-1.22262e-10 -3.55136e-11 4.06032e-10)
(5.53132e-10 -1.61203e-10 -4.88801e-11)
(-4.68941e-10 -1.74172e-09 4.87735e-11)
(-5.68828e-10 -1.17049e-09 4.92763e-10)
(1.78512e-10 2.56861e-10 3.0813e-10)
(4.14522e-10 -2.22488e-10 -4.22099e-11)
(3.86705e-10 -1.64283e-10 -5.47751e-11)
(1.65074e-11 3.7897e-12 -1.04133e-11)
(-9.47597e-11 -6.91482e-10 6.08819e-11)
(2.74831e-10 -1.75344e-10 -1.01286e-10)
(-3.98903e-10 -1.17654e-10 7.52385e-10)
(-3.97581e-10 1.07726e-10 -1.93965e-10)
(1.05222e-10 -3.83626e-11 1.15101e-10)
(-1.75677e-10 -1.61593e-10 6.79533e-11)
(-1.70845e-10 -1.59629e-10 6.38114e-11)
(-6.9459e-11 4.02698e-12 1.36985e-10)
(9.16102e-12 -4.78906e-13 -8.68814e-12)
(1.17348e-11 -1.45874e-12 -4.90547e-12)
(2.35994e-10 -2.07784e-11 2.67967e-10)
(3.25934e-11 3.20616e-12 4.69012e-11)
(-3.30934e-11 -3.34426e-11 -6.77404e-11)
(-3.13034e-12 1.12622e-12 8.10419e-12)
(1.96321e-11 3.71806e-12 -7.46292e-12)
(8.52277e-11 -7.57233e-12 6.17315e-11)
(1.94945e-10 -3.0949e-11 1.92329e-10)
(1.61761e-10 -2.02491e-11 2.61575e-10)
(-1.01199e-10 2.52181e-11 8.32671e-11)
(9.34502e-12 1.10366e-12 -1.04444e-11)
(-1.40035e-10 -4.23219e-12 -3.40015e-11)
(-1.13614e-10 -1.59799e-11 -1.78855e-11)
(-2.96538e-11 -9.97009e-11 3.17327e-10)
(5.59185e-10 -1.92762e-10 -1.70859e-10)
(2.73674e-10 -1.65808e-10 -6.97945e-11)
(-1.85127e-10 -5.79406e-11 3.80188e-10)
(1.5546e-11 2.41452e-12 -1.00328e-11)
(-1.79444e-10 -4.10268e-11 -6.03046e-11)
(-1.8163e-10 -8.46682e-13 -5.11785e-11)
(3.00543e-11 5.64003e-11 5.58758e-11)
(-1.01908e-10 -2.51494e-10 2.56079e-10)
(5.03327e-11 1.3508e-10 1.31175e-10)
(-1.53663e-11 -3.04142e-11 1.08123e-10)
(-9.71178e-10 -2.32696e-09 6.15837e-11)
(3.78105e-11 1.90952e-11 5.97324e-11)
(-2.7546e-11 9.48526e-11 1.63117e-10)
(-7.58266e-11 6.20497e-11 1.68738e-10)
(5.51842e-11 -3.20171e-11 -6.85142e-11)
(1.90531e-11 -1.70131e-12 -1.34056e-11)
(1.28252e-11 -1.25349e-12 -7.88013e-12)
(1.20512e-11 -1.62643e-12 -5.29124e-12)
(-1.55531e-10 -2.10211e-11 4.2283e-10)
(-1.40478e-10 1.86914e-11 4.08252e-10)
(-1.51556e-10 4.8392e-11 4.36839e-10)
(1.07726e-11 -4.68625e-12 -1.21127e-11)
(4.01879e-12 -3.14527e-12 -9.34597e-13)
(-2.47449e-12 -1.05972e-12 3.37754e-13)
(-1.38541e-12 -1.619e-12 1.54162e-13)
(-5.29311e-11 -5.95582e-11 5.12415e-10)
(1.35017e-11 -5.04114e-12 -4.10996e-12)
(8.3853e-11 -7.94411e-12 6.06844e-11)
(-7.38403e-11 3.26625e-11 3.48656e-10)
(8.77241e-11 -8.96103e-12 6.30135e-11)
(9.04351e-11 -1.08446e-11 6.61532e-11)
(-6.0863e-10 -1.26124e-10 -1.36224e-10)
(-2.99717e-11 2.22743e-11 2.0391e-10)
(-3.20791e-11 2.07064e-11 1.84813e-10)
(9.40131e-12 3.48438e-12 6.58441e-11)
(-2.47242e-10 -3.55086e-11 -7.85465e-11)
(-2.829e-10 -3.94977e-11 -6.68499e-11)
(1.2055e-10 -1.1852e-11 -7.84596e-11)
(-3.29119e-10 2.52105e-11 -1.47562e-10)
(-2.95175e-10 2.20997e-11 2.49401e-10)
(-1.71573e-10 -2.19873e-12 -4.4366e-11)
(-5.26334e-11 1.97826e-11 -1.90615e-11)
(-1.36352e-10 -2.27681e-11 -4.09134e-11)
(-1.26448e-10 -3.22997e-11 -2.71632e-11)
(2.90324e-11 8.22889e-11 5.35722e-11)
(3.21963e-11 1.05261e-10 6.86586e-11)
(-2.39813e-11 -9.55199e-11 1.97871e-10)
(-9.06159e-11 -1.33622e-10 1.76819e-10)
(-3.20967e-11 -1.10969e-10 2.69303e-11)
(-6.26118e-11 -3.46129e-10 3.92265e-11)
(-4.01657e-11 -1.00742e-10 1.10205e-11)
(-1.32603e-10 -5.82279e-10 2.59392e-10)
(-1.03761e-10 -8.30621e-12 -2.53483e-11)
(-8.27718e-11 -1.22697e-11 -1.7148e-11)
(3.46368e-11 3.67975e-11 8.47183e-11)
(1.76363e-11 5.18295e-11 9.54604e-11)
(4.33619e-11 4.92062e-12 8.80139e-11)
(-8.14219e-12 -3.36568e-11 3.10893e-10)
(-1.07497e-11 5.89556e-11 2.09687e-10)
(-4.83049e-12 6.45822e-11 1.27813e-10)
(1.75451e-11 3.03149e-11 1.0943e-10)
(3.8632e-11 2.31237e-11 6.54986e-11)
(2.0725e-11 5.28063e-11 8.3074e-11)
(1.41811e-10 4.69452e-11 4.71122e-10)
(-8.92257e-12 5.56362e-11 3.67796e-10)
(-2.16182e-11 6.91586e-11 1.32517e-10)
(2.90238e-11 3.71527e-11 6.45204e-11)
(1.26962e-10 5.78084e-11 4.53784e-10)
(-1.49544e-11 7.10029e-11 1.06731e-10)
(3.48017e-11 -1.72246e-12 6.03184e-11)
(2.48337e-10 -7.46613e-11 4.26494e-10)
(1.13394e-10 3.63957e-11 4.32932e-10)
(-2.45702e-11 9.83873e-11 1.92228e-10)
(2.2663e-11 -2.36914e-12 6.72384e-11)
(3.18534e-11 5.84107e-12 4.69376e-11)
(3.07437e-11 1.77325e-11 4.78776e-11)
(1.29663e-10 2.428e-11 3.95201e-10)
(-1.33677e-11 6.84567e-11 8.44277e-11)
(1.73312e-11 -2.65328e-12 6.86715e-11)
(1.67576e-10 1.29637e-10 3.96648e-10)
(-5.30048e-11 8.63756e-11 1.59672e-10)
(1.23526e-11 -1.65084e-12 6.32487e-11)
(2.32277e-11 -3.16675e-12 4.38541e-11)
(2.15808e-10 4.74531e-11 3.39177e-10)
(2.7615e-11 1.28386e-11 4.15729e-11)
(2.59228e-10 5.98109e-11 3.34168e-10)
(-9.2423e-12 6.09419e-11 6.49644e-11)
(-1.01589e-10 9.20811e-12 2.0361e-10)
(-7.64025e-11 3.57708e-11 1.31061e-10)
(-5.29656e-11 5.70665e-11 9.55123e-11)
(-6.60634e-11 1.00659e-10 1.73386e-10)
(7.89414e-12 -1.16676e-12 6.68812e-11)
(2.42482e-11 2.52576e-11 4.65325e-11)
(1.29152e-10 -2.27341e-11 3.93644e-10)
(-9.43052e-11 -1.00574e-11 2.06395e-10)
(-3.26522e-11 5.16441e-11 7.0669e-11)
(-4.11713e-11 5.28728e-11 1.18357e-10)
(3.83192e-12 8.96416e-13 6.34819e-11)
(-5.85437e-11 2.18953e-10 2.71159e-10)
(2.13893e-11 -3.81877e-12 4.04288e-11)
(1.2435e-10 1.70866e-10 3.35226e-10)
(2.26972e-10 6.81105e-11 3.49966e-10)
(3.49012e-10 9.57023e-11 4.30149e-10)
(2.06237e-11 3.88515e-11 5.59409e-11)
(2.12808e-10 -1.51653e-11 4.58967e-10)
(-8.55652e-11 -4.00339e-11 2.00108e-10)
(-4.59646e-11 5.96211e-11 1.25788e-10)
(-1.64819e-13 2.56813e-12 6.79601e-11)
(9.58836e-12 -7.65243e-13 5.56475e-11)
(2.90053e-11 -3.11912e-12 4.42544e-11)
(3.71918e-11 1.73288e-11 5.88022e-11)
(-1.08241e-10 -7.47027e-11 2.38017e-10)
(-2.275e-11 4.34868e-11 5.07463e-11)
(-3.39545e-11 3.48014e-11 9.75682e-11)
(-2.37788e-11 1.98966e-11 8.80684e-11)
(-1.20178e-11 1.14689e-11 7.72806e-11)
(-9.04381e-13 5.29491e-12 6.76396e-11)
(9.5428e-12 1.17984e-12 6.00121e-11)
(4.27938e-10 2.7456e-10 9.68979e-10)
(4.41471e-11 3.13316e-11 7.87766e-11)
(-1.4131e-10 -3.4185e-10 -1.82442e-10)
(-4.72251e-12 3.80376e-11 4.86388e-11)
(-2.57139e-11 2.21307e-11 8.37173e-11)
(-1.47497e-11 1.3061e-11 7.73557e-11)
(-1.93783e-12 7.24026e-12 6.93224e-11)
(1.06334e-11 3.60579e-12 6.31416e-11)
(-7.82139e-11 1.55081e-10 1.5812e-10)
(2.97549e-11 -2.63301e-12 5.33049e-11)
(5.17942e-11 8.56768e-13 7.09478e-11)
(5.94055e-10 -5.10665e-11 -2.03977e-10)
(1.02537e-10 2.59994e-11 1.16491e-10)
(6.49775e-10 -2.1793e-10 -1.35918e-10)
(5.99918e-10 -2.95447e-10 -1.29669e-10)
(4.05883e-10 -3.74882e-10 -2.21124e-10)
(-4.50795e-11 1.76908e-12 6.42349e-12)
(-2.67593e-11 8.65898e-12 1.62864e-11)
(-1.24682e-11 1.4785e-11 7.23162e-11)
(-6.98976e-13 9.00416e-12 6.93858e-11)
(5.68205e-10 -2.36942e-10 -1.20384e-10)
(2.70345e-11 2.24917e-11 5.23955e-11)
(9.90986e-11 -3.02995e-10 -3.08448e-10)
(-1.44073e-11 -2.37154e-10 -2.94006e-10)
(-5.44305e-11 -1.51885e-10 -2.27525e-10)
(-4.41418e-11 -6.79172e-11 -1.23717e-10)
(-3.20665e-11 -2.38977e-11 -5.48593e-11)
(-2.58124e-11 -4.6283e-12 -1.42222e-11)
(-1.94277e-11 2.39623e-12 5.58197e-12)
(-8.95447e-12 8.48525e-12 1.26245e-11)
(-5.85915e-11 8.22709e-11 8.51124e-11)
(5.08565e-11 -6.70911e-13 6.55128e-11)
(1.04362e-10 2.01681e-11 1.03361e-10)
(5.01867e-11 1.49442e-11 6.19095e-11)
(-9.53565e-13 1.45373e-12 4.35982e-12)
(8.45217e-11 1.00741e-11 7.85966e-11)
(3.14296e-10 3.20856e-11 -4.89753e-10)
(4.81248e-10 -6.75901e-11 -2.85649e-10)
(9.36887e-11 9.93105e-12 8.88357e-11)
(1.88945e-11 4.31004e-13 1.88051e-11)
(1.97627e-10 -1.55972e-10 -1.63354e-10)
(-3.04557e-11 2.82666e-11 4.0523e-11)
(6.20989e-11 4.51692e-12 6.35487e-11)
(-1.77131e-11 3.11191e-11 -2.78693e-10)
(1.03115e-10 1.89554e-11 9.47156e-11)
(1.16106e-10 1.37853e-11 1.07586e-10)
(3.49245e-11 -7.18307e-13 2.95116e-11)
(1.00052e-10 -1.08617e-10 -1.82671e-10)
(6.11059e-11 -8.73542e-11 -1.82923e-10)
(3.6321e-11 -6.14885e-11 -1.61552e-10)
(7.38208e-11 7.76689e-12 7.18931e-11)
(1.86561e-11 -3.41726e-12 -1.93135e-10)
(1.96823e-10 1.86531e-11 -3.05169e-10)
(4.99162e-11 -2.55939e-12 3.81592e-11)
(3.34876e-11 -3.09612e-11 -1.07285e-10)
(2.85224e-11 -1.91477e-11 -8.71058e-11)
(1.58098e-11 2.91362e-12 2.26962e-11)
(2.94809e-11 -1.54997e-11 -1.29909e-10)
(9.62566e-11 1.41991e-11 8.50424e-11)
(1.57812e-10 -1.16637e-11 -1.75421e-10)
(9.00609e-11 -5.18245e-12 7.2424e-11)
(5.74941e-11 -2.98288e-12 3.88911e-11)
(6.46806e-11 -3.55013e-12 4.77977e-11)
(3.08705e-11 -8.82617e-12 -6.46085e-11)
(3.86427e-11 8.6935e-13 3.69454e-11)
(8.67043e-11 9.18206e-12 7.54381e-11)
(1.2664e-11 -2.57734e-11 -7.26297e-11)
(1.01778e-10 -2.62877e-11 -1.42404e-10)
(1.06871e-10 -9.26882e-12 8.13612e-11)
(4.89354e-11 -1.54148e-12 -2.22409e-11)
(7.87094e-11 7.51244e-12 7.34204e-12)
(6.58417e-11 -3.12322e-12 4.5331e-11)
(2.97858e-11 -2.63999e-12 -4.81682e-11)
(5.68094e-11 -7.01429e-13 4.74599e-11)
(1.00009e-10 8.67996e-12 8.88559e-11)
(1.86284e-11 -2.65208e-11 -4.2496e-11)
(4.18634e-11 -2.06588e-11 -1.58425e-11)
(7.53038e-11 -3.77588e-11 -1.14629e-10)
(4.80885e-11 -3.58701e-11 -1.13275e-10)
(1.46849e-10 2.3098e-12 1.27966e-10)
(1.17319e-10 -1.06407e-11 8.85303e-11)
(2.98267e-11 3.49094e-12 -2.86515e-11)
(7.88039e-11 -5.22738e-12 -1.21343e-11)
(8.57065e-11 9.60241e-12 1.38843e-11)
(7.97204e-11 4.83047e-12 2.18132e-11)
(7.235e-11 -4.18357e-12 4.99255e-11)
(6.88988e-11 -1.21423e-12 5.64089e-11)
(6.43057e-11 -2.09861e-11 2.02374e-11)
(4.00146e-11 -3.65061e-11 -7.70402e-11)
(3.33758e-11 -3.47402e-11 -6.75942e-11)
(1.31145e-10 1.55976e-11 1.17501e-10)
(1.58951e-10 2.73393e-12 1.36276e-10)
(1.31972e-10 -1.3889e-11 9.8023e-11)
(2.29589e-11 6.34845e-12 -2.90753e-11)
(3.38142e-11 1.21302e-12 -1.99613e-11)
(8.41129e-11 6.15656e-12 2.69886e-11)
(8.23039e-11 3.88962e-12 3.25593e-11)
(8.34547e-11 -5.31633e-12 5.5424e-11)
(2.60505e-11 1.97823e-12 -3.32113e-11)
(8.02261e-11 -2.25282e-12 6.37204e-11)
(1.18526e-10 7.55994e-12 1.00466e-10)
(7.34562e-11 -1.49284e-11 3.66296e-11)
(1.24338e-10 1.36619e-11 1.07727e-10)
(2.12376e-11 -3.25276e-11 -4.34767e-11)
(1.92256e-11 -2.91716e-11 -3.70876e-11)
(1.42653e-10 1.26986e-11 1.28537e-10)
(-2.20377e-10 -8.59852e-11 4.59248e-10)
(-2.33145e-10 -7.93576e-11 4.36947e-10)
(1.64642e-10 -1.46111e-11 1.30211e-10)
(1.71667e-11 6.982e-12 -2.41668e-11)
(8.51533e-11 4.17742e-12 3.75764e-11)
(8.9804e-11 3.55572e-12 4.26882e-11)
(8.94507e-11 1.83384e-12 4.5579e-11)
(9.54262e-11 -6.91711e-12 6.20651e-11)
(2.08591e-11 1.32585e-12 -2.36389e-11)
(8.75285e-11 -2.66345e-12 6.88526e-11)
(1.23943e-10 6.96427e-12 1.04465e-10)
(1.432e-10 1.14766e-11 1.30702e-10)
(-1.96299e-10 -9.04168e-11 4.51575e-10)
(1.65852e-10 4.27343e-12 1.46017e-10)
(1.78186e-10 -1.5672e-11 1.3936e-10)
(-2.10187e-10 -4.04239e-11 3.68532e-10)
(1.22621e-11 5.09296e-12 -1.5305e-11)
(9.17926e-11 3.61332e-12 4.71421e-11)
(9.22458e-11 2.88047e-12 4.76743e-11)
(1.00686e-10 2.48004e-12 5.43742e-11)
(1.02041e-10 -4.09396e-12 6.24396e-11)
(1.06203e-10 -7.25025e-12 6.71433e-11)
(-1.73606e-10 -5.49089e-12 4.30984e-10)
(1.41468e-11 1.31723e-12 -1.13133e-11)
(9.51799e-11 -3.44576e-12 7.40719e-11)
(1.4753e-10 9.03435e-12 1.22452e-10)
(-1.30164e-10 -8.03679e-11 4.50246e-10)
(9.08704e-12 -1.75469e-11 -1.62953e-11)
(7.98987e-12 -1.45122e-11 -1.24293e-11)
(1.43549e-11 -9.43433e-12 -6.20873e-12)
(5.07742e-11 -5.94184e-12 6.76163e-12)
(1.68824e-10 1.15695e-12 1.50187e-10)
(-1.7822e-10 -9.23971e-11 3.85699e-10)
(-2.01412e-10 -7.48881e-11 3.70661e-10)
(1.85869e-10 -1.97329e-11 1.42356e-10)
(1.10778e-11 -2.95417e-13 -1.87928e-12)
(1.07845e-10 6.34392e-12 5.33606e-11)
(-1.82879e-10 -9.81562e-12 3.41123e-10)
(1.01407e-11 3.05069e-12 -9.30789e-12)
(1.00903e-10 3.4505e-12 5.50923e-11)
(1.03635e-10 2.51019e-12 5.68496e-11)
(1.0558e-10 -4.26359e-12 6.34807e-11)
(1.10816e-10 -7.88315e-12 7.03674e-11)
(-1.78859e-10 1.08509e-11 4.11935e-10)
(-1.64938e-10 1.08039e-11 4.1638e-10)
(-1.60704e-10 1.54776e-11 4.38775e-10)
(-1.52375e-10 -5.81758e-13 4.00624e-10)
(1.04167e-10 -4.34743e-12 7.87763e-11)
(1.54968e-10 5.26929e-12 1.29053e-10)
(-1.55616e-10 -8.35281e-11 4.33641e-10)
(-1.95563e-10 -4.44403e-11 5.96301e-10)
(1.77747e-11 -1.43345e-11 -1.04211e-11)
(1.3124e-11 -1.26729e-11 -8.92785e-12)
(7.11947e-12 -1.13288e-11 -6.94485e-12)
(1.87009e-12 -9.22236e-12 -4.77721e-12)
(-1.52672e-12 -6.12281e-12 -2.61122e-12)
(1.00743e-13 -2.78307e-12 -6.80671e-13)
(2.15057e-11 6.06045e-13 2.90688e-12)
(6.05651e-12 -1.13433e-12 4.9193e-13)
(1.03643e-10 -1.28087e-11 2.65511e-11)
(1.98465e-10 -2.34453e-11 1.52054e-10)
(9.22931e-11 1.54284e-12 5.37595e-11)
(1.06179e-10 3.28645e-12 5.87602e-11)
(1.12115e-10 3.58942e-12 6.21035e-11)
(1.13627e-10 -5.01523e-12 7.00935e-11)
(1.21386e-10 -8.12555e-12 7.59508e-11)
(-1.62166e-10 1.50377e-11 3.85145e-10)
(-1.5571e-10 2.26086e-11 4.13613e-10)
(-1.59181e-10 2.28522e-11 4.49003e-10)
(-1.61973e-10 2.04604e-11 4.54119e-10)
(-1.40545e-10 1.13264e-11 5.91964e-10)
(-1.6675e-10 -3.97028e-11 5.57369e-10)
(-1.77932e-10 -4.18916e-11 5.61011e-10)
(-1.6553e-10 -7.32073e-11 3.54609e-10)
(-1.97105e-10 1.18648e-11 5.55283e-10)
(-1.70432e-10 -5.89226e-11 2.95055e-10)
(2.05762e-10 -2.82343e-11 1.54782e-10)
(1.10037e-11 -2.37275e-12 -3.52067e-12)
(9.46408e-11 -9.43758e-13 6.12824e-11)
(-1.58701e-10 -9.7094e-12 2.94257e-10)
(-2.39964e-10 4.71079e-11 6.74137e-10)
(1.13805e-10 5.07315e-12 6.19602e-11)
(1.18219e-10 3.77813e-12 6.53939e-11)
(1.21287e-10 -5.22148e-12 7.37898e-11)
(1.31969e-10 -1.05695e-11 8.02145e-11)
(-1.55349e-10 1.34924e-11 3.45126e-10)
(-1.51725e-10 2.32292e-11 3.82242e-10)
(-1.31959e-10 3.22693e-11 4.63831e-10)
(-1.06886e-10 2.5132e-11 5.49318e-10)
(-5.73399e-11 -4.70977e-12 6.2924e-10)
(-1.3236e-10 -6.65582e-11 3.52159e-10)
(-1.65779e-10 -3.0405e-11 5.06337e-10)
(-1.78054e-10 2.05179e-13 5.01513e-10)
(-1.55204e-10 -7.45167e-11 3.11523e-10)
(7.6501e-11 -8.17076e-12 5.46253e-11)
(8.03669e-11 -4.5126e-12 5.43741e-11)
(2.17066e-10 -3.46862e-11 1.60707e-10)
(9.99823e-11 5.07861e-13 6.53065e-11)
(1.2479e-10 5.65141e-12 6.80715e-11)
(1.28396e-10 5.34052e-12 6.87946e-11)
(1.33962e-10 -6.98419e-12 7.71491e-11)
(1.46359e-10 -1.21174e-11 8.44953e-11)
(-1.37948e-10 1.72256e-11 3.37966e-10)
(-7.32953e-11 2.70748e-11 5.33337e-10)
(-5.46542e-11 9.15563e-12 6.21656e-10)
(1.24863e-10 -8.90764e-12 8.86348e-11)
(-1.4207e-10 -5.83389e-11 3.24728e-10)
(-1.57996e-10 -2.14136e-11 4.74269e-10)
(-1.40032e-10 -6.36383e-11 2.95568e-10)
(8.50772e-11 -5.42525e-12 5.86633e-11)
(2.20371e-10 -4.12572e-11 1.58697e-10)
(1.04305e-10 -5.19231e-13 6.78856e-11)
(-1.30539e-10 -9.10745e-12 2.43662e-10)
(1.3259e-10 8.15137e-12 7.09144e-11)
(1.34385e-10 6.53491e-12 6.92887e-11)
(1.35044e-10 3.83493e-12 6.9296e-11)
(1.44673e-10 -7.76041e-12 7.74369e-11)
(1.56955e-10 -1.55574e-11 8.26726e-11)
(-1.29715e-10 1.54677e-11 2.94833e-10)
(-4.32631e-11 2.69534e-11 5.24251e-10)
(-3.71949e-11 -1.54869e-12 6.16579e-10)
(1.35461e-10 -1.18413e-11 9.2103e-11)
(-1.44937e-10 -5.10808e-11 2.98487e-10)
(-1.5575e-10 -1.62682e-11 4.46941e-10)
(-1.43004e-10 -5.33089e-11 2.77294e-10)
(-1.84366e-10 4.16838e-11 5.45381e-10)
(2.21351e-10 -5.0405e-11 1.57096e-10)
(-1.30244e-10 -3.02951e-11 2.11702e-10)
(-2.21181e-10 2.11079e-11 6.29577e-10)
(1.09777e-10 1.09173e-12 7.29774e-11)
(-1.41845e-10 -4.16887e-11 6.4391e-10)
(1.46701e-10 8.48686e-12 7.1622e-11)
(1.46275e-10 5.50302e-12 7.14113e-11)
(1.5844e-10 -9.81529e-12 7.75463e-11)
(1.72285e-10 -1.77496e-11 8.43624e-11)
(-1.10198e-10 2.24859e-11 2.84386e-10)
(-2.73683e-11 1.41767e-11 4.9987e-10)
(-3.37542e-11 -1.08272e-11 5.88679e-10)
(1.46177e-10 -1.44036e-11 9.51217e-11)
(2.26328e-10 5.08491e-12 1.78283e-10)
(1.06207e-10 -1.34896e-11 7.32209e-11)
(-1.48878e-10 2.97739e-11 4.79912e-10)
(9.09495e-11 -9.40383e-12 6.54179e-11)
(-2.06285e-10 7.19175e-11 5.89991e-10)
(9.36277e-11 -3.32433e-12 6.59337e-11)
(2.06449e-10 -5.48493e-11 1.46889e-10)
(2.15554e-10 -5.24261e-11 1.22462e-10)
(1.51488e-10 1.1629e-11 6.80466e-11)
(1.56493e-10 6.68244e-12 6.97694e-11)
(1.69549e-10 -9.97134e-12 7.46112e-11)
(1.78124e-10 -2.00792e-11 7.85095e-11)
(-1.02277e-10 1.77779e-11 2.44893e-10)
(-2.87364e-11 -1.7276e-11 5.68318e-10)
(1.59423e-10 -1.97847e-11 9.74906e-11)
(2.21932e-10 8.82501e-12 1.69386e-10)
(-6.45951e-11 -4.26889e-11 2.90401e-10)
(1.33277e-10 -2.00306e-11 8.24941e-11)
(-1.28649e-10 -3.68181e-11 2.40494e-10)
(1.09158e-10 -1.52691e-11 7.36007e-11)
(9.41321e-11 -1.06981e-11 6.76255e-11)
(8.90119e-11 -8.77832e-12 6.50332e-11)
(-1.12243e-10 -4.57158e-11 1.91387e-10)
(-1.1169e-10 -2.61006e-11 1.78115e-10)
(1.23559e-10 7.14725e-12 7.39989e-11)
(2.06325e-10 -5.5932e-11 1.14762e-10)
(1.64986e-10 1.50162e-11 6.85097e-11)
(1.65114e-10 1.01175e-11 6.74333e-11)
(1.76971e-10 -1.1298e-11 6.84851e-11)
(1.88886e-10 -2.10289e-11 7.68271e-11)
(-8.80716e-11 2.18238e-11 2.36182e-10)
(2.03239e-10 1.46911e-11 1.5021e-10)
(-9.41993e-11 -4.00215e-11 2.40363e-10)
(-7.2002e-11 -4.07295e-11 2.54983e-10)
(-6.23176e-11 -3.19927e-11 2.66191e-10)
(1.39474e-10 -2.53485e-11 8.08662e-11)
(-1.32824e-10 -2.6231e-11 2.18728e-10)
(-1.20393e-10 -1.50642e-11 3.21152e-10)
(1.14021e-10 -1.90526e-11 7.5942e-11)
(1.39304e-10 -2.49703e-11 1.59135e-10)
(-1.2649e-10 -3.44753e-11 2.19072e-10)
(-1.1302e-10 -4.78616e-11 2.02516e-10)
(-1.44588e-10 1.34519e-10 5.44614e-10)
(1.24587e-10 -5.12225e-11 1.05129e-10)
(-2.19269e-10 5.17205e-11 5.91884e-10)
(1.28739e-10 1.1433e-11 7.67085e-11)
(1.73973e-10 -5.61814e-11 9.77548e-11)
(1.67832e-10 1.85754e-11 6.36193e-11)
(1.75258e-10 1.21987e-11 6.5152e-11)
(1.88655e-10 -1.13605e-11 6.71868e-11)
(1.97117e-10 -2.27706e-11 7.48371e-11)
(-8.34918e-11 2.0643e-11 2.11266e-10)
(2.04134e-10 -1.11405e-11 1.02997e-10)
(2.03587e-10 -1.51561e-12 1.03663e-10)
(1.84124e-10 1.70554e-11 1.49203e-10)
(-9.4934e-11 -3.22493e-11 2.05907e-10)
(-7.24606e-11 -3.61789e-11 2.16555e-10)
(-6.32344e-11 -3.41134e-11 2.30233e-10)
(-6.99966e-11 -2.45412e-11 2.37101e-10)
(1.45432e-10 -3.07939e-11 7.99957e-11)
(-1.38327e-10 -1.35226e-11 1.98429e-10)
(1.59738e-10 -2.98415e-11 1.94813e-10)
(-6.69798e-11 9.68087e-11 4.02218e-10)
(-1.0253e-10 -3.93162e-11 1.69167e-10)
(-2.04376e-10 1.33929e-10 5.96819e-10)
(1.09644e-10 -1.36926e-13 7.91806e-11)
(1.51613e-10 -5.8494e-11 1.451e-10)
(-1.02951e-10 -3.00772e-11 1.58144e-10)
(1.28318e-10 1.15304e-11 7.54022e-11)
(1.53444e-10 -5.3995e-11 1.09356e-10)
(-1.50806e-10 -2.32084e-11 5.9325e-10)
(1.80595e-10 2.40975e-11 6.43359e-11)
(1.85527e-10 1.61224e-11 6.52909e-11)
(1.98203e-10 -1.02695e-11 6.88801e-11)
(1.98681e-10 -2.16503e-11 7.78848e-11)
(-5.97682e-11 1.73971e-12 4.43013e-10)
(2.14021e-10 -1.26072e-11 1.03371e-10)
(2.12049e-10 -1.28609e-12 1.03943e-10)
(1.85358e-10 1.35227e-11 1.67344e-10)
(-1.02964e-10 -2.19177e-11 1.74664e-10)
(-7.46257e-11 -3.04025e-11 1.84264e-10)
(-8.46447e-11 -2.20171e-11 2.05078e-10)
(1.57555e-10 -3.57988e-11 8.6272e-11)
(1.63151e-10 -4.27508e-11 1.99767e-10)
(9.59719e-11 -1.28525e-11 7.47576e-11)
(1.56169e-10 -4.96278e-11 1.8018e-10)
(1.89947e-10 2.70052e-11 6.58908e-11)
(2.00822e-10 2.00259e-11 7.31907e-11)
(1.87549e-10 -1.88769e-11 8.78853e-11)
(-6.4295e-11 2.07131e-11 1.7733e-10)
(-6.27963e-11 -5.04711e-13 4.39195e-10)
(2.28394e-10 -1.25066e-11 1.07528e-10)
(2.23934e-10 3.45739e-13 1.2035e-10)
(1.92098e-10 9.07405e-12 1.79333e-10)
(-1.06961e-10 -1.0472e-11 1.43528e-10)
(-9.48439e-11 -2.60719e-11 1.73525e-10)
(1.60864e-10 -4.16849e-11 8.45955e-11)
(1.77611e-10 -6.87277e-12 1.97395e-10)
(-7.69345e-11 -2.41559e-11 1.40591e-10)
(-1.41835e-10 -1.86979e-12 1.8872e-10)
(9.99166e-11 -2.28013e-11 7.37907e-11)
(-1.25076e-10 -2.03802e-11 1.94971e-10)
(-5.48801e-11 3.45729e-10 5.5778e-10)
(1.44658e-10 2.64988e-11 7.30867e-11)
(2.06368e-10 3.03757e-11 8.25431e-11)
(2.17236e-10 2.16947e-11 9.28328e-11)
(1.72836e-10 -1.42324e-11 1.09704e-10)
(-6.6579e-11 -7.3111e-12 4.28408e-10)
(2.44229e-10 -1.96783e-11 1.28581e-10)
(2.24915e-10 -7.68946e-12 1.29376e-10)
(2.07466e-10 7.16006e-12 1.4291e-10)
(1.81093e-10 1.39327e-11 1.68555e-10)
(-1.26534e-10 4.97924e-12 1.17488e-10)
(-8.02677e-11 -2.2837e-11 1.6056e-10)
(1.7144e-10 -1.33144e-12 1.87487e-10)
(-1.54971e-10 2.08916e-11 1.42354e-10)