/*--------------------------------*- C++ -*----------------------------------*\
  =========                 |
  \\      /  F ield         | OpenFOAM: The Open Source CFD Toolbox
   \\    /   O peration     | Website:  https://openfoam.org
    \\  /    A nd           | Version:  7
     \\/     M anipulation  |
\*---------------------------------------------------------------------------*/
FoamFile
{
    version     2.0;
    format      ascii;
    class       volScalarField;
    location    "9.5";
    object      p;
}
// * * * * * * * * * * * * * * * * * * * * * * * * * * * * * * * * * * * * * //

dimensions      [0 2 -2 0 0 0 0];

internalField   nonuniform List<scalar> 
382612
(
0.00207937
0.00183309
0.00199498
0.00199797
0.00173701
0.00220568
0.00212089
0.00201535
0.0018456
0.0016813
0.00187947
0.00186716
0.00180897
0.00183576
0.00195132
0.00207094
0.00184564
0.00198579
0.00201978
0.00203948
0.00205815
0.00208225
0.0021063
0.00211375
0.00209522
0.00207214
0.0020493
0.00245157
0.00249527
0.00253223
0.00256293
0.00235379
0.00234756
0.00233899
0.00232346
0.00223892
0.00195358
0.00204179
0.00210171
0.00213187
0.0021564
0.00217807
0.00209215
0.00207666
0.0020561
0.00202987
0.00194683
0.00196082
0.00198067
0.00199697
0.00215678
0.00214154
0.00212312
0.00210316
0.00207802
0.00191877
0.00197174
0.00205546
0.00211656
0.00200517
0.00207726
0.00194928
0.00196552
0.00261071
0.00201261
0.00186073
0.00212053
0.00232518
0.00242615
0.0025547
0.00257171
0.0025739
0.00257494
0.00270788
0.00269852
0.00268613
0.00266204
0.00255863
0.00236097
0.00246109
0.00250019
0.00252663
0.00254526
0.0028747
0.00288192
0.00289036
0.00287556
0.00272725
0.00211529
0.00223787
0.0022679
0.00228244
0.00229206
0.00246697
0.00248117
0.00249863
0.00250078
0.00243666
0.00201085
0.00208103
0.00210101
0.00211366
0.00212721
0.00214264
0.00201808
0.00201114
0.00200307
0.00200002
0.00181001
0.00183852
0.00185919
0.00187406
0.00212446
0.00210677
0.00208682
0.0020668
0.00204063
0.00170041
0.00181999
0.00185164
0.00186594
0.00187436
0.00203619
0.00201893
0.0019999
0.00197782
0.00191199
0.00165864
0.00184315
0.00196871
0.00199068
0.00199906
0.00200174
0.00220902
0.00221782
0.00223009
0.00224314
0.00235746
0.00233669
0.00220528
0.00217388
0.00215486
0.00214127
0.00189638
0.00188673
0.00187541
0.0018699
0.00198585
0.00199825
0.00200893
0.0020157
0.00200813
0.00200521
0.00199894
0.00199438
0.00203648
0.00195635
0.00188716
0.00188693
0.0018933
0.00189754
0.00183057
0.00198393
0.00202086
0.00170832
0.00187478
0.00181634
0.00209827
0.00230594
0.00178235
0.00180319
0.00213898
0.00174319
0.00181845
0.00179664
0.00172758
0.00172408
0.00173275
0.00173828
0.00223788
0.00224839
0.00226585
0.00228902
0.0022906
0.00196907
0.00192923
0.0019189
0.00191809
0.00191926
0.00223324
0.00224782
0.00227141
0.00230092
0.00232983
0.00200442
0.00211192
0.00211927
0.00211797
0.00211315
0.00210998
0.00193242
0.00193247
0.00193466
0.00194638
0.00165291
0.00165552
0.00166231
0.00166505
0.00198141
0.00198218
0.00198254
0.00198539
0.00202206
0.00167889
0.00166919
0.00202649
0.00192508
0.00161443
0.00184502
0.00198218
0.00169656
0.00197334
0.0019396
0.00166176
0.00159354
0.00190267
0.00190854
0.00175343
0.00157752
0.00181081
0.00195094
0.00200827
0.00197855
0.00197079
0.00183598
0.00166661
0.00200553
0.00193098
0.00199306
0.00202407
0.00194197
0.00199174
0.00211444
0.00208836
0.00189165
0.00193796
0.0019743
0.0019848
0.00199776
0.00201143
0.0021588
0.00215663
0.00214845
0.00210857
0.00237109
0.00234674
0.00232826
0.00231127
0.00272577
0.00271575
0.00270642
0.00268334
0.00255115
0.00247411
0.00241161
0.00241522
0.00242648
0.0024297
0.00243547
0.00210044
0.00210261
0.00209805
0.00208458
0.00209243
0.00255077
0.0025133
0.00251581
0.00252501
0.00253316
0.00235933
0.00234585
0.00232418
0.00230728
0.00233162
0.00254228
0.00249574
0.00249495
0.00250861
0.00251988
0.00271752
0.00271803
0.002718
0.00270914
0.00263945
0.00255578
0.00267845
0.00270753
0.00271997
0.0027272
0.00314245
0.00314872
0.00315685
0.00313956
0.00297139
0.00220468
0.00222881
0.0022439
0.0022659
0.00228385
0.00235855
0.00235098
0.00234076
0.00232027
0.00222421
0.00204601
0.00212227
0.00215431
0.00217771
0.00219329
0.00252753
0.00254187
0.00256535
0.00257671
0.00249646
0.00185424
0.00185031
0.00185564
0.00187199
0.00188754
0.00195605
0.00195394
0.00196559
0.00197978
0.00198939
0.00193642
0.00192196
0.00190388
0.00189395
0.00188491
0.00243314
0.00243367
0.00241233
0.00238643
0.00236821
0.00187539
0.00186655
0.00185617
0.00185845
0.00190027
0.00237632
0.00232583
0.00229466
0.00227003
0.00225453
0.00174984
0.00174545
0.0017409
0.0017551
0.00185333
0.00205519
0.00199216
0.00198319
0.0019873
0.00199213
0.00222336
0.00223573
0.00225474
0.00228084
0.00232925
0.00195779
0.0018672
0.00185534
0.00186202
0.00186841
0.00218908
0.00219963
0.00221491
0.00223199
0.00224045
0.00201164
0.00204341
0.00204556
0.00204647
0.00204349
0.00204065
0.00196753
0.00196669
0.00196626
0.00197151
0.00181469
0.0018121
0.00181371
0.00181463
0.00198348
0.00198685
0.00198988
0.00199208
0.00200013
0.00183401
0.00208789
0.00203417
0.00202159
0.00201766
0.00201488
0.00196736
0.00213546
0.00220759
0.0021599
0.002145
0.00213706
0.00213165
0.00199412
0.00199364
0.00199267
0.00199199
0.00203929
0.00203711
0.0020335
0.00203076
0.00205569
0.00205687
0.00205886
0.00206022
0.00204525
0.00204689
0.00205103
0.00205406
0.00222565
0.00222987
0.00223421
0.00223744
0.00225671
0.00206102
0.00206257
0.00208889
0.0021579
0.00201673
0.0020601
0.00202014
0.00191025
0.00179171
0.00197944
0.0019825
0.00182593
0.00215158
0.00210682
0.00208
0.00212351
0.00200124
0.00204161
0.00211601
0.00219673
0.00219431
0.00229269
0.00228017
0.00224658
0.002241
0.00224241
0.00224451
0.00233194
0.00232896
0.00232476
0.00231982
0.0023172
0.00236672
0.00237504
0.00237766
0.00238042
0.00238369
0.00231327
0.0023134
0.00231287
0.00230908
0.00230348
0.0021344
0.00207627
0.00208517
0.00208767
0.00208753
0.00208766
0.00214995
0.00214281
0.0021338
0.00212828
0.00208137
0.00208568
0.00209094
0.00209492
0.00206036
0.00206121
0.00206249
0.00206182
0.00205704
0.00208111
0.00227314
0.00226075
0.00226169
0.00226097
0.00225901
0.00227426
0.00235552
0.00230373
0.00229164
0.00229707
0.0023054
0.00231151
0.00251981
0.00251882
0.00251584
0.00250363
0.00246298
0.00248992
0.00251535
0.00252555
0.00253212
0.00253683
0.0024507
0.00244465
0.00243682
0.00242834
0.00242225
0.00234882
0.00237974
0.00239368
0.00239994
0.00240397
0.00220946
0.00219829
0.00218502
0.0021781
0.00213012
0.00213473
0.00213592
0.00213729
0.00216899
0.00216703
0.00216491
0.00216058
0.00221738
0.00221944
0.00222547
0.00223078
0.00245568
0.00244472
0.00243057
0.00241279
0.00238009
0.00221922
0.00214196
0.00212806
0.00224262
0.00216542
0.0021149
0.00208491
0.00215061
0.00201771
0.00203745
0.00208797
0.00214019
0.00218457
0.00209481
0.00211063
0.00222143
0.00218123
0.00211232
0.00229362
0.00236948
0.00246048
0.00249816
0.00244596
0.00245373
0.00246251
0.0024718
0.00247845
0.00258564
0.00257885
0.00256875
0.00255338
0.00252261
0.00254989
0.00258077
0.00259308
0.00260023
0.00260477
0.00251459
0.00251061
0.00250429
0.00249353
0.00248
0.00246278
0.00247318
0.00247951
0.00248278
0.00248468
0.00242166
0.00241162
0.00239833
0.00238303
0.00235091
0.00221914
0.0022405
0.00224003
0.0022374
0.00223533
0.00230898
0.00230029
0.00228993
0.00227539
0.00222911
0.00215283
0.00210266
0.00211235
0.00211656
0.00211673
0.0021162
0.00213872
0.00213512
0.00213109
0.00213348
0.0021814
0.0021863
0.00219285
0.00219792
0.00213343
0.00213237
0.00213164
0.00213046
0.0021215
0.00217599
0.0021577
0.00209978
0.00209992
0.00214449
0.0021068
0.00207697
0.00208429
0.00211882
0.00221427
0.00212698
0.00205285
0.00206179
0.00213095
0.00206816
0.00231137
0.00262797
0.00220391
0.00210462
0.00231513
0.00246623
0.00255538
0.0025727
0.00255257
0.00253362
0.00244843
0.0024836
0.00249879
0.00250596
0.00251001
0.00258536
0.00258017
0.00257373
0.00256439
0.00253527
0.00253927
0.00257004
0.00257938
0.00258548
0.00259022
0.00254393
0.00253599
0.00252542
0.00251447
0.00250152
0.00254078
0.00257132
0.00258251
0.00258932
0.00259409
0.00254747
0.00254486
0.00253888
0.00252471
0.0024869
0.0023695
0.00236467
0.00236928
0.00237653
0.00238247
0.00244071
0.00243881
0.00243638
0.00243034
0.00240705
0.00229406
0.0022918
0.00229658
0.00230197
0.00230557
0.00218624
0.0021823
0.00217746
0.00217345
0.0021696
0.00210994
0.00208691
0.00209457
0.00209753
0.00209734
0.0020956
0.00211726
0.00211381
0.00210916
0.00210616
0.00209424
0.00209565
0.0020987
0.00210208
0.00206894
0.0020692
0.00206753
0.00206293
0.00206102
0.00210122
0.00218762
0.00218044
0.00218421
0.00218932
0.00219359
0.0021406
0.0021366
0.00213142
0.00212772
0.00213169
0.00205755
0.00204464
0.00205562
0.0020592
0.00206075
0.00206263
0.00208056
0.00207536
0.00206903
0.00206386
0.00208509
0.0020856
0.00208669
0.00208773
0.00208308
0.00208103
0.00208092
0.00208051
0.00207336
0.00208386
0.00207822
0.00205208
0.00207281
0.00206844
0.00200471
0.00201609
0.00210115
0.00212684
0.0021496
0.00209048
0.0020632
0.00203309
0.00207958
0.00206929
0.00197417
0.00187221
0.00210083
0.00207082
0.00213066
0.0021698
0.00230316
0.00216901
0.00218076
0.00233679
0.0021046
0.00206645
0.00213968
0.00228261
0.00220453
0.00211621
0.00210234
0.00223527
0.0022784
0.00213735
0.00209145
0.00210276
0.00233954
0.00233204
0.00238381
0.002389
0.00239546
0.00238572
0.00238401
0.00238494
0.00238635
0.00238123
0.00237949
0.00237831
0.00237938
0.00237717
0.00246446
0.0024842
0.00248954
0.00249371
0.00249724
0.00241679
0.00241452
0.00240976
0.00239831
0.0023724
0.00230659
0.00230353
0.002304
0.00230715
0.00231072
0.00241172
0.0024067
0.00240091
0.00239327
0.00236933
0.00238135
0.00240579
0.00241468
0.00242188
0.00242794
0.00251905
0.00251447
0.00250742
0.00249149
0.00245057
0.0023641
0.00238257
0.00239543
0.00240332
0.00240801
0.00249579
0.00249052
0.00248454
0.00247867
0.00246138
0.00245823
0.00246623
0.00247052
0.0024745
0.0024776
0.0023934
0.00239122
0.00238961
0.00238851
0.00237677
0.00233017
0.00231991
0.00231698
0.00231815
0.00231975
0.00223255
0.00222771
0.00222182
0.00221974
0.00223351
0.00225449
0.00226974
0.00227239
0.00227203
0.00227206
0.0021633
0.00216541
0.00216718
0.00216752
0.00216091
0.00215948
0.00217402
0.00217368
0.00217014
0.00216683
0.00204436
0.00204036
0.00203594
0.00203519
0.00206632
0.00207139
0.00207423
0.00207679
0.00206689
0.00206299
0.00205812
0.0020509
0.002043
0.00204279
0.00204066
0.0020454
0.00205052
0.00205425
0.00207192
0.00207252
0.00207269
0.00207291
0.00207272
0.00205481
0.00205129
0.00205047
0.00205041
0.00205015
0.0020148
0.00201109
0.002006
0.00200217
0.00202146
0.00202614
0.00202999
0.00203387
0.00210504
0.00210131
0.00209948
0.00209724
0.00206836
0.00206578
0.00206763
0.00207023
0.00209238
0.0020966
0.00210256
0.00210912
0.00211466
0.00207996
0.00209112
0.00207236
0.00204698
0.001888
0.00197062
0.00209312
0.00204026
0.00199553
0.00204094
0.00208094
0.00208085
0.0018071
0.00196264
0.00195111
0.00176902
0.00186067
0.00194367
0.00200017
0.0019569
0.00207504
0.00205186
0.00210419
0.00219045
0.00231422
0.00214756
0.00210058
0.00216628
0.00216258
0.00211695
0.00200914
0.00198827
0.00193898
0.00220159
0.00243592
0.0026012
0.00267456
0.00264098
0.00250507
0.00230381
0.00207693
0.00186919
0.00173622
0.00178525
0.00179795
0.00179703
0.00179407
0.00191745
0.00191027
0.00190248
0.00189789
0.00189278
0.00210527
0.00217105
0.00218724
0.00218842
0.00218707
0.0022702
0.00226148
0.00225148
0.00224448
0.00222835
0.00216524
0.00221579
0.00222841
0.00223354
0.00223691
0.00220039
0.00219926
0.00219487
0.00218208
0.00213738
0.00232277
0.00233182
0.0023356
0.00234331
0.00235054
0.00228483
0.00228441
0.00228088
0.00226704
0.00222054
0.00214599
0.00215366
0.0021589
0.00216243
0.00216391
0.00230457
0.00230076
0.00229799
0.00229988
0.00230586
0.00227555
0.00226871
0.00227362
0.0022798
0.0022843
0.00227771
0.00227611
0.00227228
0.002265
0.00225921
0.00221322
0.00223038
0.00223681
0.00223831
0.00223822
0.0021483
0.00214599
0.00214317
0.00214269
0.00214837
0.00221638
0.00220498
0.00219861
0.0021952
0.0021937
0.00210989
0.00210539
0.00210074
0.0021026
0.00212998
0.00209921
0.00208646
0.00208844
0.00209261
0.00209545
0.0021192
0.00212395
0.00213175
0.00214118
0.00214376
0.00202101
0.00200803
0.00201002
0.0020128
0.00201439
0.0019831
0.00198082
0.00197735
0.00197574
0.0019901
0.00200362
0.00199884
0.00199921
0.00199957
0.00199874
0.00203629
0.00203248
0.00202715
0.00202281
0.00202322
0.00197297
0.00200182
0.00201105
0.00202126
0.00203123
0.00203973
0.00201363
0.00200629
0.00199541
0.00198317
0.00200394
0.00200487
0.00200718
0.00200893
0.00204574
0.00204368
0.00204158
0.00203739
0.0020287
0.00201371
0.0020586
0.00208322
0.00207378
0.0020162
0.0019205
0.00202714
0.00197773
0.0018424
0.00199419
0.00202746
0.00187795
0.00167373
0.00176739
0.00195094
0.00185757
0.00164698
0.0018152
0.00188162
0.00192839
0.00191486
0.00194147
0.00196645
0.0020025
0.00195385
0.00162744
0.00183991
0.00184938
0.00163818
0.00162009
0.00166623
0.00172717
0.00188912
0.00205432
0.00217582
0.00222336
0.00217326
0.00203084
0.0018194
0.00158328
0.00136164
0.00125641
0.00130693
0.00131421
0.00130952
0.00130408
0.00142457
0.00141827
0.00141217
0.00140927
0.00140181
0.00168385
0.00173462
0.00174493
0.00174223
0.00173732
0.0018663
0.00185849
0.00184999
0.00184652
0.00184547
0.00202688
0.00203407
0.00203842
0.00204376
0.00204787
0.00194737
0.00194237
0.00193832
0.00194154
0.00194561
0.00210611
0.00208475
0.00208016
0.00208363
0.00208791
0.00201345
0.00201135
0.00201234
0.00202174
0.00202922
0.00213069
0.00209844
0.00208584
0.00208428
0.00208538
0.0020896
0.0020881
0.00208563
0.00208489
0.0020982
0.00223686
0.00223585
0.00222957
0.00222711
0.00222749
0.00217731
0.00217668
0.00217736
0.00218567
0.0022186
0.00214246
0.00214166
0.00213362
0.00212995
0.00212882
0.00211811
0.00211999
0.00212439
0.00213451
0.00214994
0.00207902
0.00206687
0.00206538
0.00206692
0.00206835
0.00212071
0.00212047
0.00211968
0.00211757
0.00211123
0.00214598
0.00210647
0.00215787
0.00215128
0.0020814
0.00207744
0.00208053
0.0020831
0.00208386
0.00202233
0.00202074
0.00201954
0.00202363
0.0020472
0.00199684
0.00199228
0.00199509
0.00199578
0.00199541
0.00198692
0.0019855
0.00198308
0.00198071
0.00198936
0.00198828
0.00199263
0.00199377
0.0019935
0.00199308
0.00195285
0.00195358
0.00195471
0.00195897
0.00197905
0.00214129
0.00213573
0.00212089
0.0021099
0.00210383
0.00207919
0.00208246
0.00208929
0.00210579
0.00215709
0.00206469
0.00208104
0.00207335
0.00207067
0.00206932
0.00207032
0.0020152
0.00201687
0.00202065
0.00203272
0.00195208
0.00196288
0.00196845
0.00197182
0.00210029
0.00209701
0.00209309
0.00208333
0.00205596
0.00192779
0.00198805
0.0021231
0.00202291
0.0019236
0.00190949
0.00209083
0.00193357
0.00192532
0.00195693
0.00196776
0.00196957
0.00196878
0.00188007
0.00187959
0.00187793
0.00187675
0.00188425
0.00194364
0.00197812
0.00198157
0.00197988
0.00197759
0.00201865
0.00202594
0.00203232
0.00202736
0.00196998
0.00196196
0.00200975
0.00203291
0.00203981
0.00204474
0.00205102
0.00201095
0.00201343
0.00201411
0.00200644
0.00194045
0.00194827
0.00195791
0.00196441
0.0020674
0.00206075
0.00205257
0.00204067
0.00202349
0.00195606
0.00205196
0.0020615
0.0020324
0.00195506
0.00176616
0.00194153
0.00190255
0.00166207
0.0016235
0.00184838
0.00178439
0.0015511
0.0018027
0.00187578
0.00194101
0.00198169
0.00183563
0.00185196
0.00190104
0.00187532
0.00184117
0.00193183
0.00199028
0.00192232
0.00205687
0.00204853
0.00198564
0.00193069
0.00189174
0.00200461
0.00193285
0.00176882
0.00202511
0.00204901
0.00205176
0.00207526
0.00203787
0.00203504
0.0020112
0.00204603
0.00170051
0.00185772
0.00190798
0.00169297
0.00178252
0.0019257
0.00196849
0.00199967
0.00188509
0.00195422
0.00190011
0.0017851
0.00175188
0.00188975
0.00192514
0.00171139
0.00179708
0.00195644
0.00196585
0.00177734
0.00187478
0.00199361
0.00200349
0.00190701
0.0017968
0.00199129
0.00195023
0.00171506
0.00196143
0.00194906
0.00192026
0.00187267
0.00179481
0.00178511
0.00178822
0.00178994
0.00201544
0.00201597
0.00201684
0.0020244
0.00207167
0.00228729
0.00223492
0.00221573
0.002206
0.00220119
0.00200537
0.00200036
0.00199532
0.00200387
0.00207755
0.0022487
0.00222317
0.00220992
0.00220369
0.00220101
0.00215892
0.00215583
0.00215292
0.00215773
0.0022048
0.00213751
0.00211907
0.0020044
0.00195889
0.00190913
0.00190179
0.00190332
0.00190414
0.00209283
0.00209465
0.0020955
0.00209497
0.00211216
0.002282
0.002249
0.00223583
0.00223213
0.00223141
0.00215355
0.00214944
0.0021446
0.00214696
0.00218718
0.00232399
0.00231978
0.00231403
0.00231146
0.00231041
0.00223294
0.00223289
0.00223273
0.00223558
0.00226257
0.00226022
0.00223963
0.00215703
0.00210284
0.00202308
0.0019905
0.00198842
0.00199014
0.00199127
0.00216879
0.00216918
0.00217225
0.00218326
0.00219833
0.00226548
0.00225983
0.00225399
0.00225341
0.00225475
0.00228999
0.00228805
0.00228473
0.00227974
0.0022791
0.00231232
0.00232311
0.00232798
0.00232827
0.00232762
0.00234185
0.00244711
0.00240873
0.00228912
0.0021252
0.00201864
0.00204423
0.002053
0.00205247
0.00204995
0.0021855
0.00218064
0.00217775
0.00218151
0.0021873
0.00222472
0.00224076
0.00224637
0.00225349
0.00226042
0.0021466
0.0021498
0.00215013
0.00213634
0.00208529
0.00188563
0.00186575
0.00186474
0.00187131
0.00187763
0.0017382
0.00174246
0.00174533
0.00173667
0.00170923
0.00147051
0.00146021
0.00145425
0.00145478
0.00145697
0.00145767
0.00145403
0.00145048
0.00145135
0.00145825
0.00120909
0.00120419
0.00120652
0.00121303
0.00121917
0.00118242
0.00118205
0.00118313
0.00118529
0.00118184
0.0010125
0.00100042
0.00100167
0.00100392
0.00100603
0.000921024
0.000915842
0.000912992
0.000917312
0.000942953
0.00116663
0.00118093
0.00118322
0.00117757
0.00117066
0.00131127
0.00130612
0.00130172
0.00130524
0.00132709
0.00154541
0.00152811
0.00152651
0.00153048
0.00153521
0.00171965
0.00172487
0.00172942
0.00172556
0.00169997
0.00180947
0.00183345
0.00183963
0.00183991
0.0018397
0.00175115
0.0017539
0.00175517
0.00175195
0.00175895
0.00183068
0.00180876
0.00181009
0.00181465
0.00181864
0.00193006
0.00193043
0.00193026
0.00192697
0.00191866
0.00190728
0.00188759
0.00188489
0.00188475
0.00188389
0.00209856
0.00210039
0.00210669
0.00211671
0.0021255
0.00187586
0.00185138
0.00185104
0.00185453
0.0018567
0.0019173
0.00191801
0.00191881
0.00191809
0.00191432
0.00191685
0.00189148
0.00188644
0.0018854
0.00188498
0.00203186
0.00203697
0.00204706
0.00206409
0.00207705
0.00209406
0.00206144
0.00204838
0.00204272
0.00204004
0.0018463
0.00184371
0.00183969
0.00183656
0.00184823
0.00187341
0.00186056
0.00186173
0.00186374
0.00186472
0.00210572
0.00211558
0.00213276
0.00215669
0.00215984
0.00222219
0.00223909
0.00222002
0.00220336
0.00219342
0.00220857
0.00221118
0.00221796
0.00223056
0.00222921
0.00231384
0.00230099
0.0023004
0.00229977
0.00230136
0.0020785
0.00207407
0.00206785
0.00206347
0.00206453
0.00193137
0.0019442
0.001986
0.00200332
0.00201902
0.002032
0.0020672
0.00206427
0.00205866
0.00203573
0.00215625
0.0021559
0.00215631
0.00215781
0.00213934
0.00213101
0.00212506
0.00212296
0.00213805
0.00214636
0.00205913
0.0021079
0.00198593
0.00188343
0.00213398
0.00207347
0.00201673
0.00194498
0.00179573
0.00191629
0.00190094
0.0018071
0.00185413
0.0018439
0.0019354
0.00196556
0.00191095
0.00195286
0.00197841
0.00191964
0.00183753
0.00194906
0.00191404
0.00177274
0.0018081
0.00190077
0.00185607
0.0018012
0.00191237
0.00163859
0.0014565
0.0012988
0.00121543
0.00119204
0.00118529
0.00115796
0.00110156
0.00103261
0.000955873
0.000875425
0.000787683
0.00069574
0.000600673
0.000684573
0.000673185
0.000672207
0.000674255
0.000676019
0.000805573
0.000816527
0.000828403
0.000835422
0.000831452
0.000889983
0.000891643
0.00088911
0.000883826
0.00087883
0.000830748
0.000840529
0.000850499
0.000856368
0.000866782
0.00109878
0.00105339
0.00104185
0.00104259
0.00104623
0.00119029
0.00119865
0.00120608
0.00120582
0.00120814
0.00148773
0.00146474
0.0014525
0.00145127
0.00145218
0.00164999
0.00164845
0.00165089
0.00166529
0.0017049
0.0015402
0.00154584
0.0015461
0.00154481
0.00154286
0.00150397
0.00150812
0.00151065
0.00151224
0.00153396
0.0018599
0.00183878
0.00182103
0.00181432
0.00181265
0.00188429
0.00188507
0.00188952
0.00190658
0.00196325
0.00166923
0.00167642
0.00167757
0.0016772
0.00167649
0.00170524
0.00170734
0.0017101
0.00171502
0.00173587
0.00196923
0.00196692
0.0019502
0.00193943
0.00193419
0.00191479
0.00191757
0.00192432
0.00194122
0.001988
0.00171234
0.0017051
0.00170639
0.00170868
0.00170938
0.00177984
0.00178053
0.00178122
0.00178062
0.00177945
0.00185752
0.00183548
0.00182912
0.00182594
0.00182389
0.00204792
0.0020583
0.00207517
0.00209508
0.00208894
0.00176579
0.001771
0.00177783
0.00178123
0.00178272
0.00182728
0.00182408
0.00181651
0.00180131
0.0017828
0.00180326
0.00182228
0.00184067
0.0018528
0.00185931
0.00195485
0.00194769
0.00193538
0.00191367
0.00187862
0.00178777
0.00183441
0.00185814
0.00186997
0.00187595
0.00213702
0.00213163
0.00212294
0.00210062
0.00202605
0.00219533
0.00223154
0.0022312
0.00222843
0.00222791
0.00210801
0.00211157
0.00211443
0.00210794
0.00203405
0.00204187
0.00205414
0.00206591
0.00212696
0.00211114
0.00209365
0.00207819
0.00208621
0.00210161
0.00210556
0.00210654
0.00234125
0.00233758
0.00233357
0.00231708
0.0022116
0.0020037
0.00206787
0.0020619
0.00191272
0.00188819
0.00206859
0.00205984
0.00188096
0.00195134
0.00211333
0.00214541
0.00215927
0.00216602
0.00217288
0.00204812
0.00203666
0.00201793
0.00199672
0.00228716
0.00231098
0.00231144
0.00231173
0.00219502
0.00218957
0.00218095
0.00216505
0.00214254
0.00229869
0.002295
0.00229577
0.00228906
0.0022852
0.00230248
0.00229789
0.00229227
0.0022805
0.00233807
0.00204285
0.00205961
0.00206327
0.00206812
0.00207586
0.00208331
0.0021711
0.00217253
0.00217246
0.00215645
0.00206699
0.0020935
0.00210379
0.00211134
0.00205403
0.00204552
0.00203608
0.00202578
0.00199518
0.00190194
0.00183647
0.00205704
0.0019962
0.00200928
0.00200979
0.00193084
0.00191673
0.00191171
0.0020758
0.00199378
0.00189944
0.0019172
0.00197388
0.00189401
0.00196268
0.00194405
0.00191765
0.0016448
0.00127853
0.000905759
0.000638158
0.000538607
0.000598519
0.000731902
0.000835001
0.000843838
0.000760337
0.000631083
0.000549894
0.000481748
0.000449157
0.000392908
0.000414923
0.000401048
0.000393814
0.000387135
0.000381669
0.000448798
0.000449834
0.000453464
0.000464214
0.000498035
0.000541782
0.000529719
0.000523429
0.000514901
0.00050626
0.000651289
0.000653869
0.000660184
0.000676149
0.000703901
0.000903902
0.000860111
0.000839558
0.000830792
0.000826562
0.000938641
0.00094614
0.000952248
0.000954468
0.000967224
0.00130024
0.00126501
0.00124513
0.0012388
0.00123839
0.00143788
0.00144056
0.00144743
0.001469
0.00153967
0.00128179
0.00128929
0.00128939
0.00128847
0.00128797
0.00132282
0.00132717
0.00133045
0.00133371
0.00135645
0.00172705
0.00170948
0.0016878
0.0016744
0.00166839
0.00173031
0.00173304
0.00173997
0.00175901
0.00181818
0.00145602
0.00146604
0.00146805
0.00146847
0.0014678
0.00157191
0.00157478
0.00157845
0.00158399
0.0016017
0.00185649
0.00185627
0.00183691
0.00182173
0.00181378
0.00183424
0.00184169
0.00185611
0.0018786
0.00189014
0.00197447
0.00194517
0.00192534
0.00191377
0.00190799
0.00161373
0.00161204
0.00160579
0.00159307
0.0015846
0.00166374
0.00167194
0.00168222
0.00168876
0.00169132
0.00181662
0.00181375
0.00180992
0.00180543
0.00179066
0.00190376
0.00193162
0.00193695
0.00193825
0.0019388
0.00206177
0.00206112
0.00205946
0.00205273
0.00201939
0.00199753
0.00202614
0.00203247
0.00203448
0.00203465
0.00207294
0.00206451
0.00205015
0.00202544
0.0019801
0.00205717
0.00206271
0.00207294
0.00208128
0.00208635
0.0022297
0.00223476
0.00224219
0.00224257
0.00218653
0.00209399
0.00218441
0.00219426
0.0021925
0.00219068
0.00210238
0.00209812
0.00209201
0.00208271
0.00203235
0.00214343
0.00214775
0.00214461
0.00214313
0.0021459
0.00212666
0.0019859
0.00200825
0.0019726
0.00206707
0.00220021
0.00183629
0.00200651
0.00221341
0.00186435
0.00220589
0.00293252
0.00205799
0.00218694
0.00227286
0.00255827
0.00202472
0.00164744
0.00114128
0.00071601
0.000436096
0.00037337
0.00047093
0.000622304
0.000720014
0.000702599
0.000601617
0.000485667
0.000396921
0.000366843
0.000327379
0.000428505
0.000432583
0.000429443
0.000426118
0.000424137
0.000325756
0.000332241
0.000336553
0.000337125
0.000343147
0.000588993
0.000581496
0.000563969
0.000549525
0.000540558
0.000781335
0.000790798
0.000803256
0.000815254
0.000832294
0.000767583
0.00075089
0.000748773
0.000744677
0.000739273
0.0011344
0.00114518
0.00116439
0.00119282
0.00122131
0.00138302
0.00134961
0.00133376
0.00132172
0.00131358
0.00124698
0.00125055
0.00125401
0.00125811
0.00127844
0.00165941
0.00163863
0.00161272
0.00159556
0.00158653
0.00165659
0.00166249
0.00167215
0.00168574
0.00170477
0.00133471
0.001322
0.00132594
0.00133131
0.00133451
0.00145997
0.00145981
0.00145946
0.00145986
0.00147184
0.00155119
0.00155476
0.00155358
0.00155058
0.00154801
0.00164344
0.00165173
0.00166057
0.00165998
0.0016251
0.00168718
0.0017223
0.00171898
0.00170732
0.00169588
0.00192632
0.00193379
0.00194517
0.00194869
0.00189584
0.00191364
0.00194351
0.00194714
0.00194818
0.0019482
0.00197089
0.00196958
0.00196512
0.00195406
0.00190594
0.00204798
0.00209361
0.00210602
0.00211208
0.00211576
0.00220065
0.00220197
0.00220304
0.00219841
0.00215636
0.00222689
0.00224813
0.00225329
0.00225842
0.00226263
0.00234262
0.00234841
0.00235684
0.0023528
0.00226769
0.00207856
0.00204654
0.00205702
0.00207784
0.00209282
0.00239187
0.00238811
0.0023829
0.00237432
0.00232872
0.0022863
0.00227104
0.00227086
0.00227544
0.0022788
0.00225178
0.00225764
0.00226453
0.0022571
0.00218176
0.00202807
0.00214224
0.00215233
0.00214549
0.00213874
0.0022712
0.0022776
0.0022888
0.00228296
0.00215138
0.00189714
0.00192298
0.00193511
0.00194352
0.0019486
0.00208865
0.00209246
0.00209475
0.00208504
0.00204566
0.00204311
0.00194439
0.00193775
0.00204493
0.0020608
0.00192726
0.00198498
0.00199522
0.00199918
0.00200061
0.00206881
0.00207039
0.00207232
0.00207093
0.00201238
0.00197876
0.00200565
0.0019537
0.00192043
0.00191244
0.00194586
0.00196149
0.00196655
0.0019064
0.00196101
0.00199766
0.00197562
0.00197568
0.00218776
0.00207066
0.00201912
0.0020715
0.00202034
0.00199511
0.00195778
0.00187942
0.00190642
0.00197206
0.00202079
0.00202533
0.00206444
0.00204297
0.0020018
0.00198503
0.00197524
0.00198545
0.00204366
0.00210234
0.00205181
0.00202332
0.00198398
0.00193814
0.00191953
0.00198272
0.00201405
0.00200694
0.00196046
0.00198675
0.00198838
0.0019417
0.00193663
0.00197879
0.00194987
0.00192354
0.0019161
0.0019524
0.00194815
0.00188668
0.0018865
0.00197473
0.00192011
0.00186418
0.00193226
0.00194356
0.00197992
0.00201988
0.00199401
0.00196247
0.00193606
0.00196406
0.00198749
0.00192871
0.00195413
0.00200067
0.00194849
0.00195604
0.00194296
0.00195159
0.00204348
0.0019608
0.00198268
0.0020799
0.00187334
0.001843
0.00166034
0.0014424
0.00117775
0.000925098
0.000837865
0.000881266
0.00117245
0.00126245
0.00153195
0.00166126
0.00168316
0.00169446
0.00170296
0.00199052
0.00200577
0.00202297
0.00203189
0.00200605
0.00145795
0.0015042
0.00151208
0.00151259
0.00150946
0.00213156
0.00215135
0.00217682
0.00219086
0.00217732
0.0015936
0.00154472
0.00153963
0.00154249
0.00154314
0.00217021
0.00219
0.00221963
0.00225155
0.00224478
0.00224861
0.00229444
0.00229405
0.00228197
0.00227078
0.00167721
0.00167914
0.00167712
0.00167215
0.00166177
0.00163985
0.00166611
0.0016626
0.00165902
0.00165598
0.00202972
0.00203877
0.00205169
0.00207285
0.00215601
0.00169853
0.00164266
0.00163768
0.00163982
0.00163911
0.00178531
0.00178738
0.00179077
0.00180056
0.00184544
0.00220016
0.00211577
0.00208812
0.00207616
0.00206928
0.00199356
0.00200109
0.00201543
0.00204298
0.00207653
0.0021502
0.00207065
0.00204911
0.00204216
0.00203921
0.00200002
0.00200369
0.00201384
0.00203705
0.00207977
0.00205103
0.00200824
0.00200272
0.00200488
0.00200759
0.00175865
0.00171712
0.00171254
0.00171273
0.00171152
0.00178449
0.00178514
0.00178468
0.001787
0.00181303
0.00206198
0.00203116
0.00201091
0.00200205
0.00199954
0.00197826
0.00197559
0.0019756
0.00198998
0.00205753
0.00208021
0.00207884
0.00208238
0.00208277
0.00208176
0.00212324
0.00212315
0.00212273
0.00211993
0.00211177
0.00220426
0.00211791
0.00195239
0.0017369
0.00163281
0.00162851
0.00163095
0.00162824
0.0016238
0.00184292
0.00184384
0.00184761
0.00186436
0.0018993
0.00189826
0.00187955
0.00187218
0.00187301
0.0018754
0.00168583
0.00169117
0.00169613
0.00169242
0.00167964
0.00150615
0.0014857
0.00147383
0.00146993
0.00146887
0.00123121
0.00123099
0.00123449
0.00124925
0.00127975
0.00123482
0.00121719
0.0012112
0.00121144
0.00121292
0.00107463
0.00108351
0.00109262
0.00109528
0.00109007
0.0011439
0.00117625
0.00117598
0.00116497
0.00115395
0.000816255
0.000813345
0.000811716
0.000815968
0.000833243
0.000845727
0.000826724
0.000827003
0.00083171
0.000835392
0.000787715
0.00078979
0.000792811
0.000798161
0.00081427
0.000833234
0.000842816
0.000836258
0.000825339
0.000816482
0.00058825
0.000586031
0.000584013
0.000585549
0.000598404
0.000572735
0.00053827
0.000532576
0.000533177
0.000534339
0.000534876
0.000538181
0.000542232
0.000547033
0.000560088
0.000551031
0.000542863
0.000535063
0.000525949
0.000518139
0.000565725
0.000565938
0.000568277
0.000578136
0.000610304
0.000736444
0.000703625
0.000693131
0.000691239
0.000691138
0.000605844
0.000530675
0.0005661
0.000548313
0.000540796
0.000535423
0.000531405
0.000450974
0.000445141
0.000471814
0.000474654
0.000471501
0.000465817
0.000460726
0.000454576
0.000452909
0.000452601
0.000458128
0.00048668
0.000442782
0.000439925
0.000437292
0.000433145
0.000429452
0.000370793
0.000370407
0.000370493
0.000372823
0.000384
0.00033219
0.000322171
0.000319568
0.000321132
0.000322996
0.00036434
0.000366336
0.000370158
0.000380305
0.000406763
0.000431482
0.000422094
0.000418153
0.000411624
0.000405041
0.000547662
0.000551502
0.000560075
0.000576978
0.000602136
0.000815261
0.000768394
0.00075025
0.000740619
0.000734354
0.000769281