/*--------------------------------*- C++ -*----------------------------------*\
  =========                 |
  \\      /  F ield         | OpenFOAM: The Open Source CFD Toolbox
   \\    /   O peration     | Website:  https://openfoam.org
    \\  /    A nd           | Version:  7
     \\/     M anipulation  |
\*---------------------------------------------------------------------------*/
FoamFile
{
    version     2.0;
    format      ascii;
    class       volVectorField;
    location    "9.5";
    object      wallShearStress;
}
// * * * * * * * * * * * * * * * * * * * * * * * * * * * * * * * * * * * * * //

dimensions      [0 2 -2 0 0 0 0];

internalField   uniform (0 0 0);

boundaryField
{
    outlet1
    {
        type            calculated;
        value           uniform (0 0 0);
    }
    Wall
    {
        type            calculated;
        value           nonuniform List<vector> 
40276
(
(0.000427383 4.94605e-05 0.000167938)
(-0.000186859 -8.62013e-06 0.000415381)
(-0.000190589 -7.8628e-06 0.000407333)
(9.05263e-05 -4.97716e-06 0.000156086)
(7.83875e-05 2.5188e-05 0.0001556)
(8.35272e-05 5.88569e-05 0.000162107)
(9.82205e-05 4.12031e-05 0.000170172)
(0.000130672 3.71618e-05 0.000181797)
(0.000101073 2.62955e-05 0.000163628)
(9.83851e-05 6.13598e-06 0.000169262)
(0.000384401 3.81078e-05 0.000407179)
(0.000464633 1.54607e-05 0.000441375)
(0.000585155 3.97762e-05 0.00094059)
(0.000562886 3.7884e-05 0.000870907)
(0.000487491 -1.5765e-05 0.000334316)
(0.000435711 1.52661e-06 0.000363474)
(0.000394054 2.02745e-05 5.6362e-05)
(0.000352078 2.33588e-05 2.29564e-05)
(-0.00011356 -1.16685e-05 -0.000175455)
(-0.000122846 -3.76592e-05 -0.000195633)
(-0.000155886 3.93573e-05 0.000211112)
(-0.000187005 4.44111e-05 0.000197946)
(-0.000119974 3.22354e-05 6.76573e-05)
(-0.000138828 2.96434e-05 6.3969e-05)
(-9.99962e-05 2.36956e-05 4.31298e-05)
(-0.000112239 2.47404e-05 3.73517e-05)
(-0.000123925 4.10675e-05 2.19512e-05)
(-0.00012138 4.14884e-05 1.60653e-05)
(-0.00018219 5.88298e-05 3.29189e-05)
(-0.000163555 5.04893e-05 2.39923e-05)
(-0.000120428 3.92506e-05 7.08481e-05)
(-0.000134739 4.70401e-05 7.82197e-05)
(-5.25574e-05 -3.17236e-06 0.000159633)
(-4.68009e-05 -4.86017e-06 0.000148364)
(-6.28818e-05 1.02871e-05 8.13668e-06)
(-6.1724e-05 1.16835e-05 7.68022e-06)
(0.000565429 6.66828e-05 0.000217483)
(0.000614781 4.88449e-05 0.000241431)
(0.00105363 0.000255064 0.000407212)
(0.00119048 0.000326674 0.000428236)
(0.000989781 6.42563e-05 0.000167926)
(0.0009515 3.67567e-05 0.000195206)
(-5.07452e-05 -1.41753e-05 -0.000381824)
(-3.09194e-05 -1.07188e-05 -0.000345539)
(-5.35641e-05 -2.17051e-06 -0.000347311)
(-4.50595e-05 -6.08075e-06 -0.000284778)
(-7.32798e-05 -4.09485e-07 -0.000292824)
(-5.59804e-05 -3.14749e-06 -0.000235758)
(-6.44585e-05 -8.33355e-07 -0.000202346)
(-6.25306e-05 1.00103e-06 -0.000167606)
(-5.11301e-05 -1.12491e-06 -0.000136724)
(-6.29212e-05 1.29468e-06 -0.0001435)
(-5.41771e-05 -1.66575e-07 -0.000113862)
(-5.7273e-05 2.11043e-06 -0.000115221)
(0.000441802 8.14605e-05 0.0002621)
(0.000460091 9.55007e-05 0.000231284)
(-1.66255e-05 1.29208e-05 0.000129981)
(6.41346e-05 2.20314e-05 0.000191134)
(-9.46116e-06 8.31561e-06 0.000132558)
(-0.000447513 -0.000151888 -0.000428218)
(-0.000476844 -0.00012657 -0.000438959)
(1.90671e-05 3.45731e-05 0.000291623)
(-1.27956e-05 -1.18099e-05 0.000225406)
(1.06908e-05 -1.07398e-06 -4.74984e-05)
(1.35224e-05 2.91588e-06 -4.45247e-05)
(6.71235e-06 -1.82244e-08 -4.3457e-05)
(2.0437e-06 -2.73749e-06 -4.19259e-05)
(1.17018e-05 5.37738e-08 -4.44329e-05)
(-0.000115375 -1.90605e-05 -0.00010501)
(-0.000127189 -8.69854e-06 -0.000114)
(-5.16349e-05 4.10267e-06 -9.34346e-05)
(-5.26001e-05 1.07013e-07 -9.51729e-05)
(-1.71377e-05 1.28204e-06 -1.72576e-05)
(-1.71197e-05 1.29987e-06 -1.70925e-05)
(-1.55202e-05 1.35338e-06 -1.68242e-05)
(-1.46609e-05 1.65376e-06 -1.62052e-05)
(-1.6731e-05 7.55503e-07 -1.66425e-05)
(2.41399e-05 -1.79091e-06 -5.15903e-06)
(2.0948e-05 -1.83423e-06 -9.04998e-06)
(-1.21371e-06 4.43885e-06 3.1307e-07)
(-5.00819e-07 -2.33915e-07 2.33864e-07)
(7.50363e-06 -1.17767e-06 -3.89992e-07)
(1.83586e-05 -3.79183e-08 1.26106e-05)
(1.7793e-05 2.20601e-07 1.29387e-05)
(2.84838e-05 -1.31096e-06 2.00515e-05)
(5.86437e-06 5.08977e-07 -3.85984e-05)
(1.41998e-06 -1.89815e-06 -3.69173e-05)
(4.65983e-06 9.79458e-07 -3.38591e-05)
(2.57067e-05 -1.5528e-06 1.85835e-05)
(2.4511e-05 -1.11094e-06 1.76605e-05)
(2.10109e-05 -5.55239e-07 1.56204e-05)
(-4.41574e-05 -4.53122e-06 -3.99647e-05)
(3.91327e-07 -1.18614e-06 -3.24604e-05)
(3.48469e-06 1.29545e-06 -2.98212e-05)
(-3.37818e-07 -5.98499e-07 -2.87407e-05)
(-1.03552e-06 -3.43012e-07 -2.52997e-05)
(-1.66752e-06 5.30392e-08 -2.23137e-05)
(-2.51231e-06 2.18983e-07 -2.02616e-05)
(-5.91514e-06 -3.35876e-07 -1.63832e-05)
(-6.58069e-06 -1.26671e-07 -1.54719e-05)
(-7.41971e-06 9.39398e-10 -1.50886e-05)
(-1.03933e-05 -2.99885e-07 -1.50383e-05)
(-1.06041e-05 -2.19448e-07 -1.54011e-05)
(-4.95848e-05 -9.63295e-07 -4.34984e-05)
(-1.08699e-05 -3.07603e-08 -1.62221e-05)
(-1.88618e-05 -3.42945e-06 -2.30222e-05)
(-1.57268e-05 -3.41553e-06 -1.84047e-05)
(-1.07061e-05 -1.28413e-07 -1.67718e-05)
(-1.06073e-05 3.79408e-08 -1.77748e-05)
(-1.02236e-05 -5.77106e-07 -1.80886e-05)
(-1.04057e-05 4.11915e-08 -1.92079e-05)
(-9.86212e-06 -6.368e-07 -1.99537e-05)
(-9.26241e-06 -2.82778e-07 -2.03598e-05)
(-9.02324e-06 -1.08638e-06 -2.18861e-05)
(-8.68164e-06 -1.71242e-06 -2.05101e-05)
(4.09657e-06 -8.98889e-07 -2.65339e-05)
(3.9837e-06 -2.90021e-06 -2.78564e-05)
(2.54247e-06 -2.91023e-06 -2.62795e-05)
(-0.000277206 -6.29453e-05 0.000486778)
(-0.000280278 -6.14471e-05 0.000441369)
(-1.53399e-05 -1.24485e-06 5.37261e-06)
(-1.26655e-05 -1.41302e-06 6.51554e-06)
(-4.20238e-05 -1.74908e-06 1.60527e-05)
(-3.64479e-05 -3.0906e-06 1.49489e-05)
(-4.38937e-06 -8.08623e-06 -5.43161e-06)
(-2.07879e-06 -7.96779e-06 -2.67157e-06)
(-0.000127319 2.51783e-05 0.000183813)
(-0.000110567 3.38844e-05 0.000156354)
(-0.000160157 -1.79249e-05 0.000274225)
(-0.000139934 -2.39918e-05 0.00023605)
(-0.000102772 -6.25027e-06 0.000172556)
(-8.9915e-05 -9.30059e-06 0.000148511)
(-0.000156009 9.35142e-05 0.00046583)
(-0.000216106 0.00016923 0.000650739)
(7.2404e-06 -1.18031e-05 0.00018841)
(-1.43361e-06 -4.54613e-06 0.00015923)
(-0.000102189 2.75893e-05 0.000192808)
(-5.58553e-05 1.35765e-06 0.000167245)
(-0.000179739 -5.75303e-05 0.000489802)
(-0.000179319 -4.07428e-05 0.000490541)
(-0.000179185 -4.55543e-05 0.000524906)
(-0.000194791 -2.18246e-05 0.000526352)
(-0.000559529 1.71634e-06 -0.000151325)
(-0.00064206 2.43263e-06 -0.000183489)
(-2.27552e-05 -7.96789e-05 9.95783e-06)
(-2.65493e-05 -7.89428e-05 1.19239e-05)
(-2.14356e-05 -4.38657e-05 6.54854e-05)
(-2.52002e-05 -5.36541e-05 8.18248e-05)
(-2.90416e-05 -5.25506e-05 6.60848e-05)
(-2.32107e-05 -4.04551e-05 5.37467e-05)
(-1.54684e-05 -8.61463e-05 8.48782e-06)
(-1.98957e-05 -9.83539e-05 6.53327e-06)
(-2.34944e-05 -8.34772e-05 8.81935e-06)
(-2.18821e-05 -8.64849e-05 9.21272e-06)
(-2.31358e-05 -0.000128636 -1.56103e-05)
(-1.99741e-05 -0.000111411 -1.41258e-05)
(-7.64283e-06 -5.66218e-05 -3.3169e-06)
(-9.87873e-06 -5.05372e-05 -4.75771e-06)
(-6.09911e-05 -3.12533e-05 9.45636e-05)
(-5.57789e-05 -3.30789e-05 8.93634e-05)
(9.0608e-05 3.78781e-06 -0.000233566)
(9.87526e-05 -5.14405e-06 -0.00021828)
(-0.000137139 -5.95189e-05 -1.25068e-05)
(-0.000135963 -6.65054e-05 -1.47011e-05)
(-0.000297855 -4.79522e-05 0.000147144)
(-0.00031971 -5.208e-05 0.000138616)
(-0.000291605 -7.47146e-05 -2.60489e-05)
(-0.000284993 -6.19224e-05 -3.52574e-05)
(-0.000174412 0.000192754 0.000237459)
(-0.000168332 0.000241292 0.000220591)
(-0.000248893 -4.48269e-05 1.3162e-05)
(-0.000131089 -4.67453e-05 -1.84812e-05)
(-0.000206661 -7.7421e-05 7.46457e-05)
(-0.000178058 -7.58423e-05 6.3123e-05)
(-0.000227536 -5.18771e-05 5.88016e-05)
(-6.74102e-05 -4.22645e-05 -7.10721e-06)
(-3.91055e-05 -2.09131e-05 6.05052e-05)
(-3.22259e-05 -1.93911e-05 5.58592e-05)
(0.000539148 -0.000209668 0.000409808)
(0.00049629 -0.000185171 0.000342761)
(0.000474724 -0.000262063 0.00022708)
(0.000450855 -0.000195441 0.000257592)
(0.000458813 -0.000225426 0.000256466)
(0.000226676 -0.000141749 0.000184854)
(0.000320717 -0.000199675 0.000215949)
(0.000250753 -0.000144395 0.000199713)
(0.000418464 -0.000186207 0.000346249)
(0.000439822 -0.000227897 0.000329152)
(0.000435841 -0.000224425 0.000287359)
(0.000333916 -0.000219355 0.000188703)
(0.000438154 -0.000271182 0.000188697)
(0.000365044 -0.000198066 0.000242861)
(0.000135439 -6.5024e-05 0.000159674)
(0.000220217 -0.000143017 0.00018454)
(0.000169362 -8.16231e-05 0.000179509)
(0.000125161 -4.94767e-05 0.000163762)
(7.26522e-05 5.07385e-05 0.000155483)
(0.000289133 0.000113062 3.92414e-05)
(0.000350928 0.000112154 9.15935e-05)
(0.000299934 7.48195e-05 0.00010453)
(0.000317682 5.94241e-05 4.30318e-05)
(0.000378503 6.33362e-05 9.52254e-05)
(0.000341957 9.99824e-05 8.51466e-05)
(0.000307026 7.46773e-05 6.22486e-05)
(9.68053e-05 5.57125e-05 8.14577e-05)
(0.000114434 6.63365e-05 8.14141e-05)
(8.90237e-05 1.40901e-05 0.000134365)
(9.34782e-05 2.01912e-05 0.000132742)
(0.00010584 1.21172e-05 0.00015606)
(8.76245e-05 2.63842e-06 0.000140753)
(9.93549e-05 3.68489e-05 0.000129783)
(7.98425e-05 3.728e-05 9.84571e-05)
(7.85716e-05 4.10851e-05 7.1519e-05)
(7.2394e-05 2.20201e-05 8.88713e-05)
(6.55151e-05 1.05874e-05 0.000104079)
(5.12141e-05 3.11797e-06 8.25752e-05)
(6.46558e-05 -1.83652e-06 0.00010061)
(5.56898e-05 1.91627e-05 6.91845e-05)
(4.86491e-05 1.71914e-05 5.92638e-05)
(5.20556e-05 1.60573e-05 6.73884e-05)
(0.000154678 9.42595e-05 4.05897e-05)
(0.000187013 0.00010419 6.06631e-05)
(0.00019137 9.40282e-05 7.19537e-05)
(0.000183352 8.88325e-05 4.08124e-05)
(0.000113532 6.84988e-05 6.92189e-05)
(0.000131341 7.78036e-05 4.4801e-05)
(0.00014057 8.34421e-05 2.49855e-05)
(0.000143351 7.09943e-05 3.68906e-05)
(0.000124841 6.90316e-05 4.10999e-05)
(0.000272777 0.000112009 3.18282e-05)
(0.000224848 0.000106609 2.93124e-05)
(0.000289743 0.000102792 4.62248e-05)
(0.000263483 7.45909e-05 3.14232e-05)
(0.000235619 9.85109e-05 1.77996e-05)
(0.000215689 7.40602e-05 2.40611e-05)
(8.05575e-05 4.95688e-05 4.82975e-05)
(8.70448e-05 4.7214e-05 5.46619e-05)
(6.93216e-05 3.57759e-05 6.08701e-05)
(0.000106828 6.64183e-05 4.21391e-05)
(5.99456e-05 2.94655e-05 5.36908e-05)
(7.21002e-05 4.52858e-05 3.27128e-05)
(0.000118407 6.48903e-05 5.22881e-05)
(0.000155404 8.12802e-05 2.08247e-05)
(7.75141e-05 5.25549e-05 6.20529e-06)
(8.99604e-05 4.97521e-05 2.44894e-05)
(7.8889e-05 5.16398e-05 1.85619e-05)
(0.000142051 8.43216e-05 4.29459e-06)
(0.000173425 8.77328e-05 -1.77219e-05)
(0.000156897 6.11007e-05 2.02275e-05)
(0.000152291 7.54169e-05 7.36011e-06)
(0.000315478 2.83415e-05 0.000551592)
(0.000353582 5.72613e-05 0.000641194)
(0.000321487 -1.40853e-06 0.000573475)
(0.000333193 2.89718e-05 0.000589657)
(0.000352856 9.8617e-05 0.000391026)
(0.000380771 0.000103609 0.000463863)
(0.000273076 9.37983e-05 0.000381651)
(0.000297672 8.79641e-05 0.000436767)
(0.000294686 0.00010611 0.000439587)
(0.000276022 8.77806e-05 0.00045179)
(0.000390994 0.000156573 0.000503897)
(0.00032763 0.00013237 0.000377948)
(0.000372459 0.00013775 0.000470643)
(0.000237112 8.98447e-05 0.000383404)
(0.000317485 0.000115503 0.000478831)
(0.000403479 0.000128944 0.000379745)
(0.000363059 0.000134489 0.000449485)
(0.000355465 0.000130992 0.000449845)
(0.000410633 0.000135758 0.000560598)
(0.000426031 0.000169751 0.000495339)
(0.000469232 0.000183777 0.000492719)
(0.000462178 0.000192272 0.000465883)
(0.000451284 0.00015926 0.000556489)
(0.000435761 0.00016384 0.000556347)
(0.000394139 7.20459e-05 0.000459046)
(0.000505088 7.74858e-05 0.000490541)
(0.000387317 9.11018e-05 0.000472479)
(0.000300776 9.3427e-05 0.000370517)
(0.000379499 8.98917e-05 0.000462023)
(0.000414671 6.98363e-05 0.000402644)
(0.000311189 5.52032e-05 0.000302806)
(0.000336723 0.000101041 0.000364073)
(0.000360582 8.299e-05 0.000352419)
(0.000364893 9.30524e-05 0.000344451)
(0.00048702 -4.1624e-05 0.000425636)
(0.00050101 -5.93542e-05 0.000423282)
(0.000511638 -0.000135975 0.00041191)
(0.000400999 -6.20326e-05 0.000367864)
(0.000482065 -0.000116657 0.000324413)
(0.000379053 -9.24598e-06 0.000338701)
(0.000525741 -0.000126626 0.00035336)
(0.000361168 -2.77033e-05 0.000291879)
(0.000465236 -9.70174e-05 0.000284717)
(0.000542671 -0.000204503 0.000270783)
(0.000340657 5.73969e-05 0.000353856)
(0.000340244 8.53995e-05 0.000372268)
(0.000379301 2.4767e-05 0.000310869)
(0.000377243 6.39066e-05 0.000328473)
(0.000394555 0.00014186 0.000375579)
(0.000429418 0.000148118 0.000508344)
(0.000427036 0.000145972 0.000455471)
(0.000440944 0.000126861 0.000369876)
(0.000496811 0.000161984 0.000413913)
(0.000496948 0.000190118 0.00052239)
(0.000447641 0.000158744 0.000521785)
(0.000472643 0.00015607 0.000550622)
(0.000471354 0.000172317 0.000397256)
(0.000451328 0.000158798 0.000523084)
(0.000451508 0.000163995 0.000521604)
(0.000573008 0.000208674 0.000656364)
(0.000546183 0.000195926 0.000512049)
(0.000401135 0.000116436 0.000368236)
(0.000569007 0.000179246 0.000420329)
(0.000451595 0.000104238 0.000392593)
(0.000580671 0.000146702 0.000398967)
(0.000513297 0.000178018 0.000439144)
(0.000517799 0.000162779 0.0005106)
(0.000694419 0.000261663 0.000523508)
(0.000549898 0.000186753 0.000433343)
(0.000524967 0.000159452 0.000456444)
(0.000734646 0.000258507 0.000483854)
(0.000568496 0.000245892 0.000484105)
(0.000604873 0.00020946 0.00059141)
(0.000560066 0.000182376 0.000624581)
(0.000663036 0.000226248 0.000621088)
(0.00066034 0.00023141 0.000599637)
(0.000350491 0.000140796 0.000456001)
(0.000341939 0.000131499 0.000449993)
(0.00023515 7.08196e-05 0.000425292)
(0.000338893 0.0001289 0.000488261)
(0.000426398 0.000121713 0.000632073)
(0.000390047 0.00011214 0.000580176)
(0.000378799 0.000146983 0.000492155)
(0.000398312 0.000154984 0.000510999)
(0.000381413 0.000147972 0.000560376)
(0.000362821 6.26368e-05 0.000648605)
(0.000313479 4.34646e-05 0.000580292)
(0.000367988 0.000109088 0.000608195)
(0.000350739 9.56061e-05 0.000603832)
(0.000313786 4.28167e-05 0.000507868)
(0.000424863 0.00017108 0.000538541)
(0.000449731 0.000139448 0.000628314)
(0.00040121 0.000122879 0.000611493)
(0.000386808 -4.90378e-06 0.000638581)
(0.000476348 0.00014487 0.000711601)
(0.000358157 6.02264e-05 0.000604821)
(0.00046408 0.000187022 0.000524188)
(0.000502956 0.000195832 0.000562396)
(0.000447913 0.000141681 0.000624507)
(0.000438824 0.000176308 0.000559885)
(0.000507109 0.000205342 0.000563461)
(0.000503779 0.000127852 0.000695484)
(0.000514147 0.000145341 0.000783115)
(0.000409882 4.84592e-05 0.000674846)
(0.000375984 4.6323e-05 0.000615482)
(0.000407932 7.81655e-05 0.000649514)
(0.000463267 0.000130264 0.000690563)
(0.00039555 7.48949e-05 0.000607808)
(0.000514599 0.0002202 0.000602504)
(0.000513265 0.00010611 0.000750548)
(0.000593254 0.000191913 0.000853116)
(0.00028251 1.16745e-05 0.0004933)
(0.000293687 5.54774e-05 0.000502037)
(0.000358267 0.000131871 0.000560614)
(0.000377054 8.38015e-05 0.000638658)
(0.000355376 2.61603e-05 0.000589326)
(0.00043826 9.36261e-05 0.000696087)
(0.0003364 -1.22861e-05 0.000568864)
(0.000338397 4.02706e-05 0.000559997)
(0.000431818 0.000143415 0.000678901)
(0.000360448 4.5835e-05 0.00061339)
(0.000315324 3.70395e-05 0.000529138)
(0.000383708 -4.78925e-06 0.000633127)
(0.000333319 4.28692e-05 0.000559791)
(0.000354382 4.58929e-05 0.000584356)
(0.000430769 4.27235e-05 0.000703755)
(0.000336638 8.74204e-05 0.000578897)
(0.000335491 5.98575e-05 0.000565557)
(0.000428057 -5.77351e-05 0.000656217)
(0.000479557 0.000129198 0.000755027)
(0.000412555 -2.14109e-05 0.000694578)
(0.000524788 6.54731e-05 0.000858174)
(0.000400688 1.27199e-05 0.000669466)
(0.000420891 3.54838e-05 0.000685783)
(0.000530233 0.000159939 0.000770078)
(0.000425077 5.35528e-05 0.000679678)
(0.000485874 3.50787e-05 0.000773632)
(0.000523515 4.5037e-05 0.000857903)
(0.000533623 1.92127e-05 0.000856645)
(0.000420911 3.53774e-05 0.000674644)
(0.000476009 4.13069e-05 0.000755292)
(0.000425619 1.47182e-05 0.000675913)
(0.000485597 4.8911e-05 0.000768426)
(0.000548157 0.000176732 0.000684685)
(0.000536432 0.000193359 0.000612218)
(-2.10017e-05 -4.91023e-05 0.00016019)
(0.000566994 0.000155082 0.000775205)
(0.000493229 0.000140704 0.000663639)
(0.000616304 0.000228359 0.00066354)
(0.000575508 0.00022264 0.000599911)
(0.000610754 0.000215503 0.000673518)
(-2.52589e-05 -4.87776e-05 0.000159628)
(0.000544507 0.000173854 0.000710246)
(0.000564557 0.000209388 0.000657275)
(0.000611853 0.000230316 0.00068506)
(0.0005565 0.000169035 0.00076464)
(0.000625791 0.00017908 0.00091293)
(-2.29003e-05 -4.85602e-05 0.00015691)
(0.000469611 7.32973e-05 0.000727952)
(0.000433931 6.34894e-05 0.000710871)
(0.000467724 9.75821e-05 0.000705968)
(0.000527262 5.99302e-05 0.000796377)
(0.000464627 0.000107695 0.000703081)
(-2.53698e-05 -3.80738e-05 0.000159922)
(0.00057661 0.000237006 0.00066304)
(0.000595108 0.000121954 0.000837437)
(0.000682398 0.00021729 0.00093035)
(0.000656952 0.000219943 0.000773309)
(0.000715552 0.000252836 0.0006477)
(0.000772221 0.000285122 0.000656006)
(0.000646532 0.000191363 0.000833153)
(0.000605011 0.000176223 0.000745376)
(0.000634232 0.000258155 0.000626661)
(0.000667991 0.00023779 0.000678645)
(0.000642539 0.000204229 0.000758854)
(0.000712203 0.000245713 0.000809547)
(0.000737163 0.00028361 0.000775816)
(0.000657883 0.000205052 0.000836567)
(0.000685159 0.000172101 0.000940701)
(0.000562173 0.000138298 0.000783099)
(0.00062602 0.00013979 0.000974045)
(0.000509593 0.000105396 0.000751796)
(0.000587303 8.09269e-05 0.000888754)
(0.000729967 0.000241479 0.000925103)
(0.000606246 0.000196833 0.000765366)
(0.000644901 0.000168663 0.000920381)
(0.000536758 8.95802e-05 0.000866331)
(0.000556746 0.000150395 0.000787536)
(0.000728092 0.00013178 0.00102233)
(0.000640802 0.000146385 0.00099483)
(0.000591383 6.57336e-05 0.00094961)
(0.000592808 1.95341e-05 0.000944209)
(0.000474848 2.91973e-05 0.00078822)
(0.000467463 6.59136e-05 0.000733759)
(0.00060211 0.000119559 0.000871579)
(0.000614359 0.000126121 0.000960274)
(0.000577459 2.72604e-05 0.00090478)
(0.000593191 3.77345e-05 0.000934389)
(0.000602579 -4.00249e-05 0.000936526)
(0.000584305 3.82332e-05 0.000894407)
(0.000668847 0.000131728 0.000971336)
(-3.13422e-05 -4.31713e-05 0.000168306)
(0.000500784 -2.74452e-06 0.0008206)
(0.000455786 5.64022e-05 0.000718015)
(0.000649166 0.000149317 0.000956764)
(0.000675401 0.000189217 0.00101264)
(0.000564686 -2.16485e-06 0.000944002)
(0.00070228 6.18629e-05 0.00110945)
(0.000525724 4.03966e-05 0.000827395)
(0.000649381 2.8803e-05 0.000996181)
(0.000519001 5.10596e-05 0.000821171)
(0.000500014 -2.02132e-05 0.000761405)
(0.000642461 -9.09514e-05 0.000952481)
(0.000687496 3.08702e-05 0.00108992)
(0.000688389 -6.76982e-07 0.00107899)
(0.000368419 -5.07943e-05 0.000536329)
(0.000290403 2.01526e-05 0.000450782)
(0.000325326 9.90145e-06 0.000467531)
(0.000314849 1.01084e-05 0.000482145)
(0.000226429 4.10561e-05 0.000405064)
(0.000300862 2.83336e-05 0.00046642)
(0.000384693 3.20792e-06 0.000500361)
(0.000301697 4.69345e-05 0.00047176)
(0.000350194 4.50066e-05 0.000622172)
(0.000351865 6.21726e-05 0.00059682)
(-2.31131e-05 -4.18128e-05 0.00015349)
(-2.67804e-05 -4.38448e-05 0.000160387)
(-2.47814e-05 -4.05127e-05 0.00014857)
(-2.62636e-05 -3.6835e-05 0.000149432)
(0.000393023 3.32672e-05 0.000615014)
(0.000355649 7.56655e-05 0.000563972)
(0.000423707 1.48744e-05 0.000568748)
(0.000380264 3.22527e-05 0.000511503)
(0.00039825 -1.32991e-05 0.000514001)
(0.000394942 3.80255e-06 0.000485157)
(-2.97046e-05 -3.62248e-05 0.000154805)
(0.000417151 1.98033e-06 0.000537409)
(-3.50264e-05 -2.88978e-05 0.000164879)
(-3.01202e-05 -3.4607e-05 0.000155897)
(0.00044874 1.14245e-05 0.00022266)
(0.000446313 1.54889e-05 0.000271332)
(0.00042501 -1.48625e-05 0.000257495)
(-3.34596e-05 -3.44507e-05 0.000153924)
(-2.65121e-05 -3.83258e-05 0.000164548)
(-2.59082e-05 -4.18655e-05 0.000161093)
(-3.2311e-05 -3.37716e-05 0.000174984)
(-3.3851e-05 -4.2306e-05 0.000182586)
(-2.96951e-05 -3.02949e-05 0.000166598)
(-2.85594e-05 -2.62483e-05 0.000159405)
(-3.46564e-05 -3.44879e-05 0.000158992)
(0.000397385 6.34922e-05 7.0871e-05)
(0.000458532 6.41073e-05 0.000136842)
(0.000377161 3.25836e-05 7.91576e-05)
(0.000362512 6.64013e-05 5.66725e-05)
(0.000377748 4.66157e-05 8.03489e-05)
(0.000439352 1.03975e-05 0.000124667)
(0.00042495 1.18031e-05 0.000187041)
(0.000450907 -3.13737e-05 0.000195297)
(0.000444824 -2.4662e-07 0.000161347)
(0.000424967 -1.1934e-06 0.000203736)
(0.000413792 2.81343e-05 8.74342e-05)
(0.000431538 -9.48785e-06 9.40314e-05)
(0.000438627 -9.5324e-06 0.000387068)
(0.000416374 5.31434e-06 0.000422055)
(0.000402557 -2.43562e-06 0.000438884)
(0.000364558 5.43956e-06 0.00042203)
(0.000395951 3.20585e-06 0.000463656)
(0.000333033 2.48006e-05 0.000431199)
(0.000464703 -5.43086e-06 0.000415705)
(0.000470825 -2.62883e-05 0.000355792)
(0.000475122 -1.57998e-05 0.000341207)
(0.000415262 -5.1436e-06 0.000355301)
(0.000394169 -2.34308e-05 0.000444847)
(0.000409769 -1.52331e-05 0.000399813)
(0.000435738 2.21888e-05 0.000516253)
(0.000504344 -3.71647e-05 0.000247674)
(0.000464485 -5.28495e-05 0.000332941)
(0.000475623 -5.40959e-05 0.000279808)
(0.000489009 -3.52621e-05 0.000353988)
(0.000524407 -8.89718e-05 0.000227554)
(0.000462753 -5.0836e-05 0.000385817)
(0.000429857 -4.44874e-05 0.000449244)
(0.000469995 -7.23367e-05 0.000430453)
(0.000473756 -1.61918e-05 0.000520505)
(0.000555594 -0.000104206 0.000408632)
(0.000514017 -0.000103729 0.000336848)
(0.00052645 -9.36308e-05 0.000273271)
(0.000510932 -7.03704e-05 0.000343234)
(0.000458051 -5.07056e-05 0.00017642)
(0.000455272 -4.14648e-05 0.000140451)
(0.000487016 -4.47585e-05 0.000181044)
(0.000334407 7.50837e-05 2.68325e-05)
(0.000344162 5.70862e-05 5.39159e-05)
(0.000297425 8.40534e-05 5.71502e-06)
(0.000321104 6.98455e-05 2.43467e-05)
(0.000365083 3.08417e-05 4.60421e-05)
(0.000410028 -2.18517e-06 6.86473e-05)
(0.000336753 4.52734e-05 4.54161e-05)
(0.000228262 8.30626e-05 -4.85207e-06)
(0.000310086 8.97013e-05 1.19324e-05)
(0.000144746 7.12205e-05 3.65974e-05)
(0.000155268 6.78482e-05 1.27772e-05)
(0.000256955 9.7425e-05 6.2594e-06)
(0.000270907 7.19839e-05 4.1357e-05)
(0.00024907 3.98854e-05 -1.79014e-05)
(0.000291734 4.83886e-05 2.55679e-05)
(0.000350582 3.77487e-05 1.77353e-05)
(0.000246894 7.69028e-05 4.76674e-06)
(0.000236129 5.48811e-05 9.82541e-06)
(0.000313797 5.44143e-05 1.62219e-05)
(0.000588463 -0.000139384 0.000192334)
(0.000571314 -0.0001425 0.000347631)
(0.00055901 -0.000139903 0.000274523)
(0.000583551 -0.000128798 0.000352007)
(0.000466299 -3.1018e-05 0.00010779)
(0.000508559 -0.000104667 0.000172295)
(0.000468084 -5.50037e-05 0.000149961)
(0.000472313 -7.63901e-05 0.000152872)
(0.000422524 -1.82329e-05 6.54079e-05)
(0.000458142 -6.02674e-05 9.96733e-05)
(0.000544633 -0.000112098 0.000136566)
(0.000588769 -0.000131619 0.000170889)
(0.000617057 -0.00020001 0.000241614)
(0.000579256 -0.000138761 0.000163855)
(0.000554353 -0.000148143 0.000193985)
(0.000386605 1.61352e-05 3.9842e-05)
(0.000397792 -8.73003e-06 3.83e-05)
(0.000427488 -5.84473e-05 9.50622e-05)
(0.000399254 -8.61564e-06 6.85045e-05)
(0.000415449 -3.65957e-05 5.69692e-05)
(0.000328227 3.33038e-05 4.4052e-05)
(0.000375244 -5.30103e-06 4.05576e-05)
(0.000553168 -0.00010401 9.79937e-05)
(0.000584038 -0.000159725 0.000115181)
(0.000602938 -0.000159529 0.000107184)
(0.000465721 -7.05056e-05 0.000108655)
(0.000428522 -3.28772e-05 0.000121848)
(0.000477813 -7.01625e-05 8.77871e-05)
(0.00030867 5.43839e-05 0.00052745)
(0.000327234 3.56053e-05 0.000544103)
(0.000370463 -1.5341e-05 0.000581217)
(0.000369158 7.23479e-06 0.000573217)
(0.000315194 7.3797e-05 0.00053246)
(0.000357453 7.41259e-06 0.00054139)
(0.000456498 -2.71404e-05 0.000680856)
(0.000327121 2.79493e-05 0.000534871)
(0.000358479 1.51587e-05 0.000554081)
(0.0004156 2.54932e-05 0.000639862)
(0.000407009 -1.35668e-05 0.000563873)
(0.00037414 1.06397e-05 0.000527743)
(0.000418828 1.62252e-05 0.000599622)
(0.000485743 -1.89343e-05 0.000689769)
(0.000492165 1.87449e-05 0.000810137)
(0.000369414 4.85735e-05 0.000591827)
(0.000423691 4.87017e-05 0.00068542)
(0.000406007 5.05045e-05 0.000679175)
(0.000434294 1.60145e-06 0.000666175)
(0.000576262 -6.9666e-05 0.000814162)
(0.000533044 -0.00011826 0.000710454)
(0.000441702 6.14244e-05 0.000718327)
(0.000461868 -1.64284e-05 0.000679412)
(0.000414663 3.70409e-06 0.000582807)
(0.0004687 5.34966e-06 0.000666265)
(0.000457242 -4.24231e-05 0.000567906)
(0.00041479 -3.37329e-05 0.000492261)
(0.000465376 -1.5369e-05 0.000591592)
(-3.62022e-05 -2.99823e-05 0.000160871)
(0.000532153 -0.000114668 0.000632739)
(0.000503451 -8.32499e-05 0.000534078)
(0.000546769 -3.31193e-05 0.00066299)
(0.000432258 -2.66808e-05 0.000616189)
(0.000502097 -6.04741e-05 0.000633983)
(0.000570071 -4.67687e-05 0.000743814)
(0.000520991 -0.000111705 0.000521076)
(0.000514678 -0.000104186 0.000435417)
(0.000498997 -4.70136e-05 0.000541469)
(0.0006359 -4.36094e-05 0.00096915)
(0.000445008 2.33316e-06 0.000679569)
(-3.63508e-05 -2.58142e-05 0.000148694)
(0.000475168 -2.64627e-05 0.000676549)
(0.000549805 -1.70446e-05 0.000801338)
(0.000621062 -9.38886e-05 0.000870512)
(0.000636377 -0.000138304 0.000803917)
(0.000468295 -7.16943e-05 0.000579269)
(-4.14662e-05 -2.1257e-05 0.000160447)
(0.000582035 -0.000216721 0.000533039)
(0.000604679 -8.62464e-05 0.000721779)
(0.000611214 -0.000107381 0.000826418)
(0.000542441 -0.000115411 0.000677562)
(0.000602235 -7.38094e-05 0.000793709)
(0.000667412 -0.000152711 0.000770648)
(0.000600139 -0.000142105 0.000613328)
(0.000730408 -0.000254796 0.000780691)
(0.000655452 -0.000266968 0.000600475)
(0.000681581 -0.00018414 0.000756878)
(0.000480787 1.16827e-05 0.000751372)
(0.000485674 -4.4136e-05 0.00070756)
(0.00059742 -5.88296e-05 0.000861315)
(0.000639282 -6.46539e-05 0.000952524)
(0.000628054 -0.000163168 0.000866743)
(0.000577495 1.33277e-05 0.000864501)
(0.000652955 -0.000120359 0.000971049)
(0.000618484 4.89257e-05 0.000962476)
(0.000579589 -7.23781e-05 0.000852285)
(0.000570459 -0.00010925 0.000787736)
(0.000680845 -0.000145561 0.000932949)
(0.000564916 -0.000125215 0.000769969)
(0.000619972 -0.000182278 0.000740044)
(0.000700697 -0.000162977 0.000882114)
(0.000798667 -0.000254835 0.000940609)
(0.000616156 -0.000248988 0.000688309)
(0.000735615 -0.000357036 0.000620843)
(0.000743228 -0.000202163 0.000830141)
(0.000619627 -0.000183007 0.000416657)
(0.000515387 -0.000177965 0.000444154)
(0.000603102 -0.000194187 0.000451626)
(0.00058549 -9.80994e-05 0.000593603)
(0.000641712 -0.000178137 0.000593107)
(0.000643868 -0.000219877 0.000408671)
(0.000592805 -0.000208186 0.000361158)
(0.00066164 -0.000218603 0.000252632)
(0.000597224 -0.000164542 0.0003468)
(0.00069073 -0.000256327 0.000418677)
(0.000705504 -0.000301405 0.000288852)
(0.00068555 -0.000248471 0.000389552)
(0.000713425 -0.000268567 0.000594489)
(-4.41817e-05 -1.70933e-05 0.000158689)
(0.000687058 -0.000317035 0.000437509)
(0.000690506 -0.000236981 0.000583556)
(0.000813394 -0.000384959 0.000696697)
(0.000797336 -0.000414495 0.000470823)
(0.000744014 -0.00028175 0.000640472)
(-4.74688e-05 -1.24095e-05 0.000159997)
(0.00077575 -0.000369951 0.000474396)
(0.000815626 -0.000382452 0.000344034)
(-3.59715e-05 -3.43286e-05 0.000183074)
(0.0007089 -0.000279293 0.00044624)
(0.000641658 -0.000217709 0.000260695)
(-4.00196e-05 -2.70485e-05 0.000186319)
(0.000651943 -0.000194636 0.000220195)
(0.000635472 -0.000210165 0.000226403)
(-3.42623e-05 -3.41596e-05 0.000168393)
(0.000707517 -0.000205829 0.000172151)
(-3.74119e-05 -1.67212e-05 0.000169746)
(-4.06979e-05 -2.86302e-05 0.000183178)
(0.000730512 -0.000327973 0.000243666)
(0.000679813 -0.000245929 0.000217961)
(-4.18507e-05 -2.7209e-05 0.000182831)
(0.000674864 -0.000252396 0.000271819)
(0.000392285 -0.000231326 0.000221024)
(-4.53825e-05 -1.97938e-05 0.000178126)
(0.000456551 -0.000280696 0.000181032)
(0.00036428 -0.00022531 0.000177866)
(-4.44069e-05 -2.04427e-05 0.000182251)
(0.000261922 -0.000165387 0.000181177)
(0.000330634 -0.000216233 0.000184568)
(-4.82953e-05 -1.30669e-05 0.000190949)
(0.000238161 -0.000159415 0.000150647)
(0.000289178 -0.000162772 0.00022765)
(-3.71416e-05 -1.96235e-05 0.000164293)
(-3.3656e-05 -1.74084e-05 0.000151541)
(0.000334787 -0.000202368 0.000180174)
(-3.92799e-05 -2.37944e-05 0.000154002)
(-4.11332e-05 -1.82219e-05 0.000168272)
(0.000160357 -9.35945e-05 0.000148126)
(-3.95883e-05 -1.58496e-05 0.000152868)
(-4.35042e-05 -1.32333e-05 0.000166655)
(0.000219642 -0.000139942 0.000170536)
(-4.21027e-05 -1.26261e-05 0.000151034)
(0.000148227 -8.98963e-05 0.000130172)
(7.93435e-05 -3.32462e-05 9.88166e-05)
(0.000135235 -6.83327e-05 0.000149123)
(9.42097e-05 -3.34022e-05 0.000117845)
(6.24267e-05 -2.03988e-05 8.49563e-05)
(0.000105771 -4.16764e-05 0.000126668)
(7.40908e-05 -4.08524e-05 8.06056e-05)
(0.000162869 -8.1479e-05 0.000168057)
(0.000201497 -0.000109887 0.000168667)
(0.000214419 -0.000178455 8.64818e-05)
(0.00034924 -0.000254162 0.000118631)
(0.000247547 -0.000167011 0.00014148)
(9.19151e-05 -6.75032e-05 6.69884e-05)
(0.000205382 -0.000161034 0.000103046)
(0.000148129 -0.000100313 0.000114106)
(0.000104015 -6.66059e-05 0.000100034)
(0.000147145 -9.10012e-05 0.00013173)
(0.000197036 -0.000126745 0.000129859)
(3.97305e-05 -4.65591e-05 1.81893e-05)
(0.000104431 -6.79594e-05 8.91155e-05)
(7.52311e-05 -7.39141e-05 4.9151e-05)
(4.10608e-05 4.84075e-05 8.9597e-05)
(4.4435e-05 2.79899e-05 9.20454e-05)
(4.4451e-05 4.82855e-05 9.70418e-05)
(5.90032e-05 5.52089e-05 0.000108225)
(7.32556e-05 3.51571e-05 0.000113176)
(3.48686e-05 4.76994e-05 7.01043e-05)
(-2.55083e-05 -3.87228e-05 0.000144859)
(2.0148e-05 7.07008e-05 6.83102e-05)
(1.95701e-05 4.04837e-05 3.40519e-05)
(4.70161e-05 3.60223e-05 7.30713e-05)
(2.46759e-05 3.38396e-05 3.55632e-05)
(5.94643e-05 1.23909e-06 9.78969e-05)
(-2.83227e-05 -3.54307e-05 0.000147208)
(2.85062e-05 1.72304e-05 6.33345e-05)
(5.46068e-05 3.43005e-06 9.46107e-05)
(4.20725e-05 3.8248e-06 6.80018e-05)