/*--------------------------------*- C++ -*----------------------------------*\
  =========                 |
  \\      /  F ield         | OpenFOAM: The Open Source CFD Toolbox
   \\    /   O peration     | Website:  https://openfoam.org
    \\  /    A nd           | Version:  7
     \\/     M anipulation  |
\*---------------------------------------------------------------------------*/
FoamFile
{
    version     2.0;
    format      ascii;
    class       volScalarField;
    location    "6.25";
    object      p;
}
// * * * * * * * * * * * * * * * * * * * * * * * * * * * * * * * * * * * * * //

dimensions      [0 2 -2 0 0 0 0];

internalField   nonuniform List<scalar> 
382612
(
0.00208768
0.00186403
0.002007
0.00200985
0.00175845
0.00222336
0.00213147
0.00201693
0.00184209
0.00170162
0.0018838
0.00187174
0.00183011
0.00185839
0.00195799
0.00208587
0.00187143
0.00201134
0.00203191
0.00205303
0.00207334
0.00209972
0.00212607
0.00214319
0.0021234
0.00209897
0.00207549
0.00250009
0.00254601
0.00258465
0.00261671
0.00240656
0.0023995
0.00239006
0.0023734
0.00228395
0.00198011
0.00205881
0.00212304
0.00215562
0.00218269
0.00220677
0.00212725
0.00211051
0.00208847
0.00206091
0.00197658
0.00199145
0.00201259
0.00203007
0.00218585
0.00216842
0.00214774
0.00212552
0.00209534
0.00194455
0.00199016
0.00206587
0.00213094
0.00202604
0.00210081
0.00199073
0.00201044
0.00262644
0.00205033
0.00188772
0.00216538
0.00236604
0.0024676
0.00260497
0.00262337
0.00262609
0.00262751
0.00278124
0.00277129
0.00275805
0.00273255
0.00262392
0.00241292
0.0025203
0.00256215
0.00259019
0.00260992
0.00294801
0.002955
0.00296276
0.00294486
0.00278193
0.00214895
0.0022821
0.00231505
0.00233114
0.00234181
0.00251752
0.00253168
0.00254885
0.00254785
0.00246647
0.00203175
0.00209511
0.00212139
0.00213632
0.00215232
0.00217048
0.00204666
0.00203874
0.00202968
0.00202595
0.00183768
0.00186748
0.00188984
0.00190617
0.00215553
0.00213503
0.00211233
0.00208979
0.00205747
0.0017248
0.00183319
0.00186625
0.00188242
0.00189239
0.00205707
0.00203653
0.00201446
0.00198997
0.00191945
0.00166682
0.00184485
0.00198516
0.00200993
0.0020198
0.00202343
0.0022339
0.00224234
0.00225409
0.00226557
0.00237465
0.00235189
0.00222666
0.00219627
0.00217723
0.00216357
0.00189772
0.00188728
0.00187487
0.00186703
0.00199324
0.00200842
0.00202099
0.00202937
0.00202654
0.00202134
0.00201301
0.0020068
0.00204801
0.00196508
0.00189681
0.00189706
0.00190439
0.00190963
0.00183905
0.00199349
0.00202897
0.00171548
0.00186375
0.00181568
0.00210604
0.00231717
0.00176694
0.00179194
0.00212302
0.00174109
0.00181368
0.00179336
0.00173017
0.00172781
0.00173681
0.00174237
0.00226009
0.00227105
0.00228895
0.00231103
0.00230366
0.00194605
0.00190928
0.00190006
0.00190022
0.00190213
0.00223942
0.00225487
0.00227962
0.00230963
0.0023363
0.0020043
0.0021225
0.00213231
0.00213135
0.00212659
0.00212357
0.00193108
0.00193143
0.00193407
0.00194623
0.00163051
0.00163449
0.00164218
0.00164535
0.00198691
0.00198683
0.0019861
0.00198794
0.00202463
0.00165358
0.0016438
0.00202475
0.0019233
0.00159618
0.00182889
0.00198076
0.00168552
0.00197011
0.00193964
0.00166109
0.00156338
0.001887
0.00191053
0.00176103
0.00157435
0.00180659
0.00194882
0.00200584
0.00199545
0.00197591
0.00184252
0.00168942
0.002016
0.00193438
0.00199774
0.00203883
0.00196211
0.00200094
0.00212329
0.00210844
0.00191004
0.00194479
0.00198369
0.00199492
0.00200912
0.00202424
0.00218474
0.00218187
0.00217276
0.00213167
0.00240459
0.00238056
0.00236202
0.00234488
0.002779
0.00276846
0.00275845
0.00273361
0.00259408
0.00250321
0.00243664
0.00244604
0.00245896
0.00246287
0.00246912
0.0021274
0.00212923
0.00212401
0.00210977
0.00211845
0.00259249
0.0025572
0.00256101
0.00257091
0.00257949
0.00240991
0.0023959
0.00237348
0.00235578
0.00237848
0.00260686
0.00256267
0.00256242
0.00257662
0.00258833
0.00279854
0.00279874
0.00279816
0.002788
0.002713
0.00262535
0.00275452
0.00278561
0.00279913
0.00280703
0.00323658
0.00324259
0.00325021
0.0032303
0.00304664
0.00226232
0.00229316
0.00230952
0.00233236
0.0023511
0.00241999
0.00241169
0.00240045
0.00237785
0.00227225
0.00207878
0.00216205
0.00219652
0.00222161
0.00223838
0.00258253
0.00259733
0.00262114
0.00263052
0.0025367
0.00184996
0.00185331
0.00186046
0.00187834
0.00189522
0.0019901
0.0019956
0.00200884
0.00202356
0.00203352
0.00195438
0.00193859
0.00191871
0.00190659
0.00189034
0.00244863
0.00246046
0.00244061
0.00241403
0.002395
0.0018596
0.00184976
0.00183796
0.00183833
0.00187364
0.00237766
0.00232999
0.00229856
0.0022727
0.00225617
0.00173086
0.0017266
0.00172211
0.00173612
0.00183263
0.00202025
0.00195739
0.00194908
0.00195433
0.00196006
0.00220796
0.00222165
0.00224228
0.00226993
0.00232173
0.00192696
0.00183422
0.00182217
0.00182877
0.00183497
0.0021798
0.00219116
0.00220764
0.00222606
0.00223546
0.00200098
0.00204392
0.00204641
0.00204731
0.0020441
0.00204102
0.00195391
0.00195339
0.00195337
0.00195917
0.00179027
0.00178784
0.00178955
0.00179038
0.00197898
0.00198226
0.0019851
0.00198727
0.00199614
0.0018092
0.00206211
0.00200595
0.00199338
0.00198998
0.00198755
0.00193236
0.00209984
0.00219048
0.00213762
0.00212084
0.00211194
0.0021059
0.00197271
0.00197287
0.00197259
0.00197202
0.00203453
0.00203179
0.0020276
0.00202433
0.00204815
0.00204985
0.00205238
0.00205423
0.00202478
0.00202647
0.00203005
0.00203242
0.00220003
0.00220484
0.00221012
0.00221515
0.00224024
0.00204041
0.00205816
0.00208993
0.00214554
0.00197377
0.00204589
0.00201022
0.00187827
0.00176567
0.00197085
0.00197363
0.00179318
0.00214702
0.00211133
0.00207961
0.00210981
0.00198007
0.00203798
0.00207959
0.00215892
0.00215129
0.0022555
0.00225378
0.00221511
0.00220796
0.00220863
0.0022103
0.00228132
0.00227856
0.00227472
0.00227135
0.00227584
0.00234201
0.00234466
0.00234429
0.00234516
0.00234723
0.00227927
0.00228061
0.00228199
0.00228188
0.00228622
0.00211637
0.0020675
0.00207211
0.0020729
0.0020712
0.00206991
0.00212325
0.00211781
0.00211077
0.00210665
0.00205305
0.00205659
0.00206077
0.00206378
0.00204437
0.002046
0.00204814
0.00204874
0.00204821
0.00205292
0.00224364
0.00222487
0.00222388
0.00222225
0.00221982
0.00223738
0.00231338
0.00226466
0.00224636
0.00225037
0.00225794
0.00226346
0.00246744
0.00246729
0.0024654
0.00245544
0.0024235
0.00245663
0.00247704
0.00248452
0.00248929
0.00249278
0.00239979
0.00239497
0.00238876
0.00238303
0.00238537
0.00231657
0.00233792
0.00234854
0.00235284
0.00235536
0.00216775
0.00215885
0.00214813
0.00214276
0.00210519
0.00210772
0.00210697
0.00210644
0.00215306
0.00215199
0.00215069
0.00214726
0.00220322
0.0022048
0.00221007
0.00221452
0.00244461
0.00243401
0.00241998
0.00240201
0.00237268
0.00220836
0.00213289
0.00212235
0.00223524
0.00218029
0.00211777
0.00207916
0.00212886
0.00198327
0.00202643
0.00207972
0.00210822
0.00217982
0.00209478
0.00209724
0.00219602
0.00214826
0.00209316
0.00227379
0.00233025
0.0024214
0.0024501
0.00240489
0.00240549
0.00241186
0.00241995
0.00242574
0.00256841
0.00256189
0.00255198
0.00253736
0.00251021
0.00254055
0.00256934
0.00258075
0.00258742
0.00259151
0.00250302
0.00249936
0.00249323
0.00248278
0.00247093
0.00249652
0.0025109
0.00251878
0.00252264
0.00252494
0.002455
0.00244412
0.00242981
0.00241314
0.00237982
0.00224079
0.00226399
0.00226417
0.00226187
0.00226009
0.00233874
0.00232895
0.00231723
0.00230109
0.00225175
0.00216702
0.00211089
0.00212155
0.00212666
0.00212736
0.0021272
0.00215393
0.00214955
0.00214457
0.00214643
0.00219038
0.00219548
0.00220233
0.00220764
0.00213674
0.00213588
0.00213526
0.00213389
0.00212522
0.00218624
0.00217456
0.00210836
0.00211304
0.00216398
0.00211525
0.00207995
0.00209843
0.00214931
0.00225295
0.00214222
0.0020759
0.00211787
0.00220585
0.00210062
0.00230178
0.00262519
0.00224018
0.00211748
0.00239455
0.00251758
0.00258161
0.00258322
0.00255164
0.00252208
0.00243688
0.00246618
0.00248012
0.00248669
0.00249041
0.00256984
0.00256538
0.00255995
0.00255201
0.00252605
0.00257701
0.00261066
0.00262111
0.00262743
0.00263219
0.00258647
0.00257813
0.00256704
0.00255459
0.00253825
0.00257427
0.00260903
0.00262205
0.00262953
0.00263465
0.00260342
0.00259965
0.00259279
0.00257855
0.00253921
0.00242728
0.00242643
0.00243264
0.00244115
0.00244803
0.00249884
0.00249618
0.0024925
0.00248418
0.00245671
0.00233398
0.00233768
0.00234424
0.0023504
0.00235448
0.00221593
0.00221158
0.00220613
0.00220062
0.00219146
0.00212174
0.0020956
0.00210522
0.00210891
0.00210899
0.00210729
0.00213283
0.00212893
0.00212367
0.00211989
0.00211164
0.00211372
0.00211745
0.00212161
0.00208091
0.00208082
0.00207854
0.00207298
0.00206872
0.00211588
0.00221125
0.0022087
0.00221377
0.00221982
0.00222488
0.00217107
0.00216635
0.00216046
0.00215581
0.00215558
0.00207233
0.00205257
0.00206471
0.00206863
0.00207043
0.00207262
0.00209915
0.00209308
0.00208581
0.00207999
0.0020969
0.00209819
0.00210006
0.00210166
0.00208982
0.00208725
0.0020865
0.00208523
0.00207537
0.00209367
0.00209139
0.00205676
0.00207484
0.00208323
0.00203615
0.00202742
0.00210392
0.00214443
0.00217587
0.00209888
0.00207965
0.00207387
0.00210782
0.00207786
0.00199424
0.00191389
0.00216981
0.00209869
0.00217331
0.00225457
0.00236173
0.00219605
0.00218058
0.00233288
0.00206046
0.00204454
0.00211479
0.00223148
0.00215753
0.00209661
0.00209447
0.00220479
0.00224998
0.00212605
0.00207938
0.00206024
0.00231277
0.00229741
0.00235323
0.00235513
0.00237073
0.00235189
0.00234747
0.00234738
0.0023483
0.00234755
0.00234665
0.00234686
0.00235023
0.00235147
0.00243752
0.00245241
0.00245518
0.00245761
0.00245988
0.00237824
0.00237653
0.00237264
0.00236302
0.00234283
0.00229589
0.00228706
0.00228482
0.00228633
0.00228887
0.00240151
0.00239738
0.00239275
0.0023869
0.0023683
0.00242159
0.00244846
0.00245834
0.00246575
0.00247153
0.00256086
0.00255626
0.0025486
0.00253209
0.00249153
0.0024407
0.0024654
0.00247996
0.00248864
0.00249394
0.00257024
0.00256414
0.00255691
0.00254884
0.00252718
0.00251611
0.00253379
0.0025409
0.00254572
0.00254918
0.00246415
0.00246124
0.00245834
0.00245485
0.00243914
0.00238249
0.00237847
0.002378
0.00238025
0.00238237
0.0022864
0.0022807
0.00227375
0.00227046
0.00228081
0.00229411
0.0023136
0.00231839
0.00231907
0.00231969
0.00219481
0.00219687
0.00219826
0.00219718
0.00218552
0.00218622
0.00220352
0.00220449
0.00220125
0.00219785
0.00205898
0.00205443
0.0020495
0.00204863
0.00207224
0.00207783
0.00208109
0.002084
0.00207101
0.0020672
0.00206249
0.00205542
0.00204661
0.0020549
0.00205308
0.00205772
0.00206299
0.00206692
0.00209402
0.00209482
0.0020952
0.00209551
0.0020957
0.00207665
0.00207511
0.00207498
0.00207528
0.00207536
0.00202907
0.00202497
0.00201959
0.00201583
0.00202584
0.00203041
0.00203425
0.0020381
0.00210194
0.00209823
0.00209628
0.00209414
0.00207325
0.00207068
0.00207285
0.00207577
0.0021124
0.0021166
0.00212229
0.00212811
0.00213287
0.00208563
0.00208889
0.00207021
0.00205249
0.00190895
0.00197725
0.00209781
0.00206473
0.00202805
0.00205066
0.00209115
0.00211268
0.00183804
0.00197462
0.00196986
0.00180809
0.00189436
0.00195914
0.00202529
0.00200202
0.00210848
0.00206897
0.00211062
0.00220884
0.00228506
0.00213114
0.00210538
0.00216919
0.00222776
0.00215266
0.00204333
0.00206469
0.00203061
0.00232803
0.00258651
0.00275554
0.00281279
0.00275094
0.00258788
0.00236857
0.00212545
0.00190165
0.00176069
0.00180461
0.00181711
0.00181608
0.00181277
0.00194876
0.00194205
0.00193479
0.00193072
0.00192668
0.00213728
0.00220329
0.0022202
0.00222119
0.0022195
0.00230615
0.0022981
0.00228871
0.00228128
0.00226298
0.00222273
0.00227185
0.00228318
0.00228877
0.00229305
0.00230191
0.00229994
0.00229448
0.00227887
0.00222196
0.00239406
0.00240853
0.00241494
0.00242405
0.0024322
0.00238001
0.00237855
0.00237379
0.00235825
0.00230541
0.00222863
0.00224491
0.00225251
0.00225695
0.00225902
0.00238311
0.00237832
0.00237382
0.00237268
0.0023719
0.00234898
0.00234849
0.00235531
0.0023624
0.00236748
0.00236444
0.00236286
0.00235895
0.0023504
0.00233824
0.0022859
0.00230543
0.0023126
0.00231436
0.00231441
0.00220734
0.00220437
0.00220078
0.00219962
0.00220422
0.00225987
0.00225161
0.00224658
0.00224382
0.00224264
0.00214627
0.00214092
0.0021354
0.00213687
0.0021649
0.00213734
0.00212652
0.0021287
0.00213272
0.00213544
0.00215118
0.00215566
0.00216282
0.00217126
0.00217337
0.00206536
0.00205257
0.00205446
0.00205721
0.00205884
0.00201339
0.0020113
0.00200808
0.00200676
0.00202163
0.00202286
0.00201766
0.00201815
0.0020187
0.00201809
0.00205021
0.00204661
0.0020417
0.00203797
0.00204068
0.00198469
0.00200515
0.00201273
0.00202218
0.00203139
0.00203922
0.00202078
0.00201371
0.00200332
0.001992
0.00201467
0.00201561
0.00201804
0.00201993
0.00204771
0.00204575
0.00204378
0.00203977
0.00203171
0.00202433
0.00206675
0.00208326
0.0020768
0.00203048
0.0019398
0.00203116
0.00198976
0.00187453
0.00202264
0.00203963
0.00188791
0.00169387
0.00178179
0.001955
0.00186812
0.00167025
0.00182473
0.00188811
0.0019342
0.00192246
0.00196241
0.00197853
0.0020057
0.00195934
0.00165404
0.00185524
0.00185971
0.00165566
0.00162768
0.00170949
0.00180741
0.00200504
0.00219935
0.00233875
0.0023901
0.00232862
0.00216143
0.00192194
0.00165939
0.0014212
0.00131386
0.00136836
0.00137644
0.00137186
0.00136638
0.00147674
0.00147012
0.00146352
0.00145982
0.00145103
0.00175667
0.001814
0.00182597
0.00182347
0.00181856
0.00194304
0.00193466
0.00192533
0.00192001
0.0019143
0.00209833
0.0021139
0.00212099
0.00212747
0.00213227
0.00203736
0.00203106
0.00202487
0.00202442
0.00202242
0.00217735
0.00216563
0.00216463
0.00216941
0.0021743
0.00209121
0.00208816
0.00208747
0.00209418
0.00209862
0.00219385
0.00216566
0.00215503
0.00215462
0.00215641
0.00216848
0.0021666
0.0021636
0.00216193
0.00217259
0.00229697
0.0022978
0.00229336
0.00229223
0.00229343
0.00224346
0.00224254
0.00224269
0.00224951
0.0022776
0.00219999
0.00220022
0.00219326
0.00219024
0.00218941
0.00216748
0.00216887
0.00217253
0.00218188
0.00219765
0.0021222
0.00210993
0.00210893
0.00211131
0.00211347
0.00218348
0.00218334
0.00218261
0.0021798
0.00217037
0.00220573
0.0021751
0.00223114
0.00223089
0.00216106
0.00216345
0.00216764
0.0021698
0.00217006
0.00208682
0.00208481
0.00208309
0.00208678
0.00210991
0.00206391
0.00206042
0.0020633
0.0020639
0.00206348
0.00204509
0.00204389
0.00204174
0.00203928
0.00204744
0.00203414
0.00203798
0.00203912
0.00203893
0.00203855
0.00198386
0.00198414
0.00198481
0.00198918
0.00201152
0.00216044
0.00215383
0.0021396
0.00212918
0.00212341
0.00208897
0.00209222
0.00209892
0.00211505
0.00216587
0.00206744
0.00207795
0.00206964
0.00206689
0.00206545
0.00206625
0.00201885
0.0020204
0.00202388
0.00203547
0.00195992
0.00197001
0.00197536
0.00197862
0.00209555
0.00209276
0.00208938
0.00208036
0.00205533
0.00193879
0.00200235
0.00212262
0.00202407
0.00193644
0.00193057
0.00210333
0.00195705
0.00194702
0.00197624
0.00198633
0.00198787
0.001987
0.00189655
0.0018961
0.00189452
0.00189373
0.00190378
0.00195445
0.0019864
0.00198927
0.00198714
0.00198451
0.00202063
0.00202779
0.0020342
0.00202994
0.00197775
0.00196575
0.0020078
0.00202858
0.00203469
0.00203894
0.00204448
0.00200996
0.00201266
0.00201365
0.00200665
0.00194637
0.00195342
0.00196245
0.00196855
0.00206258
0.00205662
0.00204927
0.00203838
0.00202319
0.00196345
0.00206147
0.00206222
0.00203362
0.00196372
0.00178113
0.00194746
0.00190952
0.00167927
0.00164085
0.00185602
0.00179157
0.00156296
0.001803
0.00187768
0.00194623
0.00198857
0.00183866
0.00185544
0.00190454
0.00188014
0.00184883
0.00193368
0.0019956
0.00193303
0.00205421
0.00204694
0.00199697
0.00195325
0.00187663
0.00199891
0.00194198
0.00178333
0.00206359
0.00207115
0.00205591
0.0020876
0.00202433
0.00202684
0.00200009
0.00202915
0.001674
0.00184603
0.00189032
0.00165743
0.00172441
0.00189998
0.00195114
0.00196277
0.00184614
0.00193511
0.00187845
0.00174409
0.00173549
0.00188026
0.00191887
0.00169601
0.001748
0.00193431
0.00194087
0.00172315
0.00180933
0.00196518
0.00198736
0.00185941
0.00174909
0.00197024
0.00193816
0.00168017
0.00191042
0.00190482
0.00187331
0.00183486
0.00175558
0.00174566
0.00174862
0.00175013
0.00197223
0.00197248
0.00197308
0.00198132
0.00203338
0.00226618
0.00220774
0.00218701
0.00217625
0.00217064
0.00196216
0.00195737
0.00195257
0.00196192
0.00203981
0.00222756
0.00219898
0.00218376
0.0021762
0.00217268
0.00212295
0.00211891
0.00211502
0.0021202
0.00217361
0.00209374
0.00207001
0.0019512
0.00191448
0.00186216
0.00185432
0.00185576
0.00185644
0.00205052
0.00205234
0.00205322
0.00205325
0.00207377
0.00225898
0.00222184
0.00220708
0.00220254
0.00220135
0.00211077
0.00210676
0.00210212
0.00210543
0.00214979
0.00229665
0.00228946
0.00228173
0.00227801
0.00227629
0.00218944
0.00218903
0.00218864
0.00219287
0.00222808
0.00221555
0.00219556
0.00211338
0.00206972
0.0019975
0.00196005
0.00195672
0.00195855
0.00196001
0.00214617
0.00214719
0.00215125
0.00216353
0.00217934
0.00225102
0.00224135
0.00223323
0.00223136
0.00223195
0.00224762
0.00224578
0.00224283
0.00223977
0.00224562
0.00227325
0.00227593
0.00227934
0.00227959
0.00227899
0.00230275
0.00241255
0.00237945
0.00227025
0.00210974
0.0020072
0.00202308
0.00203016
0.00202968
0.00202735
0.00217642
0.0021726
0.00217151
0.00217807
0.00218756
0.00222571
0.00223622
0.00223953
0.00224531
0.0022513
0.002129
0.00213239
0.0021329
0.00212039
0.00207809
0.00190016
0.00187732
0.00187412
0.00187906
0.00188425
0.00173
0.00173445
0.0017375
0.00172998
0.00170902
0.00148965
0.00147454
0.00146652
0.00146585
0.00146726
0.00148014
0.00147708
0.00147436
0.0014764
0.00148611
0.00122916
0.00122197
0.00122257
0.00122771
0.00123294
0.00120227
0.00120195
0.00120351
0.00120736
0.00120791
0.00104624
0.00103227
0.00103349
0.00103593
0.00103817
0.000963856
0.000957879
0.000954001
0.000957009
0.000981261
0.00123771
0.00125939
0.00126316
0.00125772
0.00125084
0.0013781
0.0013719
0.00136584
0.00136704
0.00138565
0.00161188
0.00160419
0.00160575
0.00161109
0.00161663
0.00182314
0.00182781
0.00183156
0.00182528
0.00178822
0.00189722
0.00192907
0.00193711
0.00193761
0.00193743
0.00183506
0.00183766
0.00183868
0.00183449
0.00183762
0.00191662
0.00189874
0.00190059
0.00190446
0.00190785
0.00201762
0.00201832
0.00201845
0.00201466
0.00200456
0.00197516
0.00195574
0.00195336
0.00195351
0.00195288
0.00215758
0.00215866
0.002164
0.00217338
0.00218251
0.00195023
0.00192842
0.00192838
0.00193141
0.00193312
0.00198229
0.00198305
0.00198399
0.00198332
0.00197931
0.00196853
0.00194267
0.00193778
0.00193714
0.00193706
0.00207814
0.00208282
0.00209228
0.00210873
0.00212208
0.00213071
0.00209688
0.00208402
0.00207881
0.00207652
0.00188872
0.00188628
0.00188249
0.00187958
0.0018922
0.00190528
0.00189154
0.00189253
0.00189439
0.00189524
0.0021213
0.00213077
0.00214746
0.00217144
0.00217853
0.00222964
0.0022417
0.00222237
0.00220612
0.00219648
0.00220379
0.00220648
0.00221335
0.00222646
0.00222909
0.00230394
0.00228859
0.0022874
0.00228662
0.00228807
0.00207436
0.00207038
0.00206483
0.00206133
0.00206494
0.00193253
0.00194333
0.00198274
0.00199898
0.0020136
0.00202558
0.00206138
0.00205907
0.00205427
0.00203253
0.0021478
0.00214698
0.00214695
0.00214805
0.00212707
0.00211954
0.00211427
0.00211297
0.00212945
0.00213929
0.00205536
0.00210019
0.00198837
0.00189341
0.00214073
0.00207569
0.00201572
0.00194537
0.00179782
0.00191867
0.00190208
0.0018061
0.00185163
0.00184503
0.00193493
0.00196157
0.00190997
0.00195241
0.00197526
0.00191361
0.00182153
0.00194074
0.0019158
0.00177656
0.00181199
0.00190165
0.00185849
0.00180538
0.00190757
0.001636
0.00145951
0.00131006
0.001235
0.00122129
0.00122756
0.00121707
0.00117908
0.00112426
0.00104801
0.000952803
0.000844434
0.000738292
0.000631471
0.000713642
0.000704084
0.000703862
0.000706444
0.000708586
0.000864629
0.000876053
0.000888465
0.00089476
0.000884532
0.000935568
0.000938355
0.000936133
0.000931049
0.000926218
0.000887998
0.000898315
0.000908729
0.000913696
0.000918852
0.001152
0.00110743
0.00109767
0.00110016
0.00110514
0.00126726
0.00127595
0.00128366
0.00128243
0.00127845
0.00155014
0.00152918
0.00151925
0.00151976
0.00152176
0.00172649
0.00172403
0.00172498
0.00173681
0.00177175
0.00161848
0.00162601
0.00162656
0.00162481
0.00162241
0.00157149
0.00157582
0.00157854
0.00158012
0.00160198
0.0019168
0.00189471
0.00187785
0.00187275
0.00187236
0.00194486
0.00194518
0.00194918
0.00196603
0.00202164
0.00174624
0.00175224
0.00175314
0.00175238
0.00175137
0.00175966
0.00176164
0.00176428
0.00176926
0.00179109
0.00202138
0.00201726
0.00200054
0.00199054
0.00198607
0.00196709
0.00196946
0.00197576
0.00199262
0.00204021
0.00176798
0.00176054
0.00176171
0.00176375
0.00176422
0.00182812
0.00182888
0.00182966
0.00182925
0.00182828
0.00189267
0.00186833
0.00186175
0.00185885
0.00185706
0.0020764
0.00208633
0.00210266
0.00212249
0.00211868
0.00180216
0.00180588
0.00181222
0.00181531
0.0018166
0.00185108
0.00184812
0.00184098
0.00182654
0.0018102
0.00182054
0.00183724
0.00185472
0.00186635
0.00187259
0.00195914
0.00195231
0.00194057
0.00191979
0.00188665
0.00179014
0.00183415
0.00185702
0.00186845
0.00187421
0.00212523
0.00212005
0.00211167
0.00209013
0.00201847
0.00218826
0.00222006
0.00221876
0.00221555
0.00221469
0.00209703
0.00210112
0.00210459
0.00209874
0.0020273
0.00203447
0.00204589
0.00205675
0.00211454
0.00209971
0.00208325
0.00206885
0.00207496
0.00208928
0.00209239
0.00209272
0.00232464
0.00232145
0.00231815
0.00230308
0.0022034
0.00199593
0.00206128
0.00205971
0.00191007
0.00188102
0.00206363
0.00205444
0.00187587
0.00194164
0.00210536
0.00213609
0.00214904
0.00215504
0.00216126
0.00203387
0.00202306
0.00200522
0.00198491
0.00226423
0.00228654
0.00228632
0.00228617
0.00216756
0.00216248
0.00215438
0.00213916
0.00211819
0.0022829
0.00227394
0.00227346
0.0022664
0.00226232
0.00227963
0.00227544
0.00227042
0.00226013
0.0023226
0.0020314
0.00205437
0.00205583
0.00206016
0.00206742
0.0020743
0.00215502
0.00215687
0.00215742
0.00214245
0.00205433
0.0020801
0.00208967
0.00209663
0.0020457
0.00203784
0.00202903
0.00201917
0.00198895
0.00189201
0.00183143
0.00205188
0.00199643
0.00200509
0.00200139
0.00193123
0.00191674
0.00190601
0.00207459
0.00199422
0.00190216
0.00192049
0.00197195
0.00189591
0.00196192
0.00193782
0.00190719
0.00164238
0.00129225
0.000939354
0.000688028
0.000592296
0.000645093
0.000767067
0.000861141
0.000866226
0.000783913
0.000657724
0.000576135
0.000503118
0.000465922
0.00040403
0.000431763
0.000417
0.000409093
0.000401564
0.000395392
0.000467492
0.000468391
0.000472049
0.000483146
0.000518881
0.000568603
0.000556511
0.000549624
0.000540189
0.000530768
0.000680228
0.000682342
0.00068807
0.000704087
0.000734356
0.000944485
0.000899344
0.000878689
0.000870241
0.000866302
0.000988304
0.000996249
0.00100276
0.00100487
0.00101741
0.00135437
0.00131483
0.00129546
0.00129074
0.00129167
0.00149378
0.00149599
0.00150244
0.00152402
0.00159303
0.00134884
0.00135304
0.00135232
0.00135071
0.00134974
0.00136878
0.00137334
0.00137696
0.00138089
0.00140592
0.00176949
0.00174871
0.00172685
0.00171457
0.00170963
0.00177564
0.00177809
0.00178481
0.00180443
0.00186566
0.00151337
0.00152263
0.0015242
0.00152412
0.00152315
0.0016105
0.00161335
0.00161696
0.00162268
0.00164187
0.00189782
0.00189537
0.0018757
0.00186104
0.00185365
0.00187374
0.00188077
0.00189481
0.0019176
0.00193158
0.00201259
0.00198079
0.00196073
0.00194949
0.00194404
0.00165042
0.00164892
0.00164288
0.00163045
0.00162311
0.00169602
0.00170283
0.00171281
0.00171913
0.00172158
0.00183543
0.00183273
0.00182913
0.00182505
0.00181267
0.00191441
0.00193968
0.00194449
0.0019456
0.00194607
0.00205963
0.00205912
0.00205775
0.00205163
0.00202049
0.0019959
0.00202221
0.00202791
0.00202963
0.00202969
0.00205903
0.00205087
0.00203694
0.00201303
0.00196994
0.00203991
0.00204397
0.00205368
0.00206173
0.00206661
0.00221016
0.00221547
0.0022233
0.00222464
0.0021727
0.00207928
0.00216553
0.00217426
0.00217198
0.00216977
0.0020867
0.00208294
0.0020774
0.00206881
0.00202155
0.0021348
0.00213672
0.00213303
0.00213115
0.00213344
0.00210871
0.00196505
0.00200393
0.00196237
0.00204317
0.00219284
0.00181958
0.00199028
0.00221763
0.00184959
0.00217981
0.00291063
0.00203254
0.00217719
0.00224732
0.00254427
0.00201154
0.00165161
0.00116282
0.000753782
0.000480248
0.000414376
0.000501368
0.000640149
0.000727829
0.000704698
0.000602046
0.000487272
0.000399544
0.000369231
0.000331384
0.000431371
0.000435271
0.000431734
0.000428014
0.000425724
0.000335279
0.00034188
0.000346526
0.00034769
0.000354414
0.000592924
0.000583103
0.000565291
0.000551219
0.000542617
0.000780964
0.000790346
0.000802878
0.000815734
0.000835845
0.000781184
0.000762256
0.000759352
0.000754739
0.000748997
0.00113766
0.00114789
0.00116661
0.00119567
0.00122788
0.00139971
0.0013612
0.00134431
0.00133235
0.00132443
0.00126954
0.00127337
0.00127721
0.00128193
0.00130471
0.00168446
0.00166032
0.00163393
0.0016174
0.00160907
0.00168596
0.0016916
0.00170112
0.00171562
0.00173929
0.00136753
0.00135407
0.00135762
0.0013626
0.00136554
0.00149148
0.0014914
0.0014912
0.00149177
0.00150368
0.00158252
0.00158562
0.0015843
0.00158129
0.00157874
0.00167178
0.00167993
0.00168874
0.00168833
0.00165456
0.0017107
0.00174384
0.00174039
0.0017289
0.00171774
0.00193736
0.00194492
0.00195637
0.00196024
0.00191037
0.00191968
0.00194657
0.00194969
0.00195062
0.00195066
0.00196721
0.00196593
0.00196167
0.00195144
0.00190744
0.00204126
0.00208436
0.0020961
0.0021019
0.00210547
0.00218407
0.00218542
0.00218661
0.00218242
0.00214253
0.00220122
0.00221947
0.0022241
0.00222905
0.00223311
0.00231835
0.00232449
0.00233344
0.00233035
0.0022489
0.00205937
0.00202476
0.00203448
0.00205467
0.00206921
0.00235692
0.00235328
0.00234822
0.0023404
0.00230012
0.00225459
0.00223723
0.00223652
0.0022407
0.00224373
0.00222735
0.00223345
0.00224076
0.00223454
0.00216345
0.00201221
0.00212238
0.00213135
0.00212408
0.00211708
0.00224593
0.00225258
0.00226418
0.00225951
0.00213223
0.0018884
0.00191288
0.00192454
0.00193245
0.00193713
0.00208136
0.0020854
0.002088
0.00207888
0.00204043
0.00203756
0.00193682
0.00192479
0.00204046
0.00205585
0.00191788
0.00197411
0.00198375
0.00198716
0.00198821
0.00206108
0.00206295
0.00206515
0.00206431
0.00200946
0.0019664
0.00199098
0.00195218
0.00192105
0.00190565
0.00193933
0.00195954
0.00196347
0.00189731
0.00195693
0.00199646
0.00197604
0.00197992
0.00219297
0.00207053
0.00201814
0.00207026
0.00201854
0.00199476
0.0019535
0.00186951
0.00189564
0.00196778
0.00201631
0.00201757
0.00207549
0.00204746
0.00201273
0.00200918
0.00198884
0.00198932
0.00204744
0.00210803
0.00205552
0.00202473
0.00198073
0.00193501
0.00192574
0.00198794
0.00201474
0.00200612
0.00196405
0.00198808
0.00198968
0.00194313
0.00193635
0.00197728
0.0019484
0.00191899
0.00189405
0.00194363
0.00193818
0.00186052
0.00186596
0.00196568
0.00190641
0.00184483
0.00191383
0.00193279
0.00197118
0.00200602
0.00198584
0.00195657
0.00193314
0.00196233
0.00198942
0.00192886
0.00195236
0.0019962
0.00195233
0.00195634
0.00194437
0.00195945
0.0020756
0.00196743
0.00198075
0.00208026
0.00189181
0.00186608
0.00169006
0.00146735
0.00118557
0.0009105
0.000807773
0.000851248
0.00115796
0.00126966
0.00155306
0.00169315
0.00171703
0.0017291
0.00173807
0.00202762
0.00204299
0.00206015
0.00206822
0.00203663
0.00147805
0.00153124
0.00153991
0.00154015
0.00153666
0.00216158
0.00218194
0.00220787
0.00222102
0.00220009
0.00160209
0.00155908
0.00155478
0.00155752
0.00155793
0.00220277
0.00222338
0.00225391
0.00228551
0.0022717
0.00226591
0.00232752
0.00232972
0.00231779
0.00230638
0.00169058
0.00169262
0.00169053
0.00168428
0.00166607
0.00161268
0.00164933
0.00164694
0.00164362
0.00164078
0.0020275
0.00203696
0.00205004
0.00207004
0.00214792
0.00167295
0.00162072
0.00161636
0.00161845
0.00161749
0.00174796
0.00174994
0.00175323
0.00176281
0.00180476
0.00218187
0.00209513
0.00206692
0.00205428
0.00204676
0.00197048
0.00197888
0.00199442
0.0020229
0.0020556
0.00212591
0.00204363
0.00202149
0.00201401
0.00201061
0.00197583
0.00198014
0.00199111
0.00201503
0.00205884
0.00201967
0.0019727
0.00196656
0.00196888
0.00197172
0.00173188
0.0016897
0.00168501
0.00168531
0.0016842
0.00175661
0.00175705
0.00175619
0.00175824
0.00178488
0.00205392
0.00202206
0.00200117
0.00199162
0.00198856
0.00196162
0.00195928
0.00195992
0.0019765
0.00205354
0.00205559
0.00205226
0.00205524
0.00205583
0.00205512
0.00210339
0.00210346
0.00210315
0.00210097
0.00209755
0.00217339
0.00208765
0.00193236
0.00172131
0.00162453
0.00161692
0.00161897
0.00161701
0.00161332
0.00184344
0.00184489
0.00184968
0.00186807
0.0019039
0.00191105
0.00188929
0.00187931
0.00187843
0.00187983
0.00168354
0.00168862
0.00169338
0.00169022
0.0016802
0.00152066
0.00149858
0.00148504
0.00148005
0.00147833
0.00124464
0.00124511
0.00124977
0.00126607
0.00129598
0.00125062
0.00123039
0.00122247
0.00122155
0.00122239
0.0010706
0.00107914
0.00108773
0.0010901
0.00108662
0.00114598
0.00117545
0.00117513
0.00116395
0.00115252
0.000821338
0.000818972
0.000818218
0.000824069
0.000844798
0.000874535
0.000856088
0.000856148
0.000860462
0.00086383
0.000812064
0.000813672
0.000816421
0.000822559
0.000841586
0.000856097
0.000866402
0.000859832
0.000848319
0.000838801
0.000593557
0.000591616
0.000589966
0.000592183
0.000607128
0.000596194
0.000560907
0.000555211
0.000555866
0.000557069
0.000553914
0.000557007
0.000560953
0.0005664
0.000582983
0.000586234
0.000579961
0.000571863
0.000561942
0.000553477
0.000592203
0.000592049
0.000593833
0.00060321
0.000636516
0.000772258
0.00074001
0.000730122
0.000728818
0.000729155
0.000640298
0.000559342
0.000591798
0.000571873
0.000563831
0.000558212
0.000554005
0.000472317
0.000466056
0.000500895
0.000503221
0.000499482
0.00049306
0.000487383
0.00047609
0.000474263
0.000473896
0.00047963
0.000509614
0.000458254
0.000452142
0.000448821
0.000444367
0.000440377
0.000384801
0.000384756
0.000385335
0.000388387
0.000401359
0.000344026
0.000332085
0.000328926
0.000330288
0.000332004
0.000373092
0.000375287
0.000379452
0.000390079
0.000416936
0.000443409
0.000432801
0.000428191
0.000420962
0.000413808
0.000561795
0.000565249
0.000573565
0.000591177
0.000619728
0.000836223
0.000787036