/*--------------------------------*- C++ -*----------------------------------*\
  =========                 |
  \\      /  F ield         | OpenFOAM: The Open Source CFD Toolbox
   \\    /   O peration     | Website:  https://openfoam.org
    \\  /    A nd           | Version:  7
     \\/     M anipulation  |
\*---------------------------------------------------------------------------*/
FoamFile
{
    version     2.0;
    format      ascii;
    class       volVectorField;
    location    "6.25";
    object      wallShearStress;
}
// * * * * * * * * * * * * * * * * * * * * * * * * * * * * * * * * * * * * * //

dimensions      [0 2 -2 0 0 0 0];

internalField   uniform (0 0 0);

boundaryField
{
    outlet1
    {
        type            calculated;
        value           uniform (0 0 0);
    }
    Wall
    {
        type            calculated;
        value           nonuniform List<vector> 
40276
(
(0.000416843 4.97517e-05 0.000169865)
(-0.000186917 -8.49341e-06 0.00041569)
(-0.000190623 -7.74827e-06 0.000407605)
(0.0001021 -2.52798e-05 0.00015734)
(8.60064e-05 6.78573e-06 0.000153602)
(8.24642e-05 5.27365e-05 0.000159686)
(9.73786e-05 4.83075e-05 0.00017049)
(0.000137631 3.60738e-05 0.000191495)
(0.000107179 2.34771e-05 0.000174562)
(0.00010278 1.02772e-05 0.000175402)
(0.000393481 3.93082e-05 0.000417612)
(0.000475709 1.64149e-05 0.000453321)
(0.000584436 4.07322e-05 0.000939292)
(0.000562539 3.97279e-05 0.000870244)
(0.000477138 -1.46348e-05 0.000329054)
(0.000426849 2.56305e-06 0.000358451)
(0.0003887 2.22445e-05 6.41486e-05)
(0.000348678 2.44333e-05 2.87327e-05)
(-0.000102962 -1.2313e-05 -0.000158018)
(-0.00011085 -4.13668e-05 -0.000175736)
(-0.000152994 3.86837e-05 0.000211904)
(-0.000184061 4.36995e-05 0.000198841)
(-0.000119443 3.21314e-05 6.80858e-05)
(-0.000138325 2.95712e-05 6.44131e-05)
(-9.999e-05 2.3705e-05 4.34911e-05)
(-0.000112297 2.47588e-05 3.7704e-05)
(-0.000121964 4.0669e-05 2.12713e-05)
(-0.000119551 4.11017e-05 1.5505e-05)
(-0.000179824 5.80426e-05 3.26103e-05)
(-0.000161164 4.97447e-05 2.38297e-05)
(-0.000121352 3.96134e-05 7.23624e-05)
(-0.000135951 4.75089e-05 7.98936e-05)
(-5.25686e-05 -3.17468e-06 0.000159666)
(-4.68115e-05 -4.86352e-06 0.000148396)
(-6.14773e-05 1.02411e-05 7.95595e-06)
(-6.04291e-05 1.16227e-05 7.5258e-06)
(0.000569663 6.47211e-05 0.00020517)
(0.000618685 4.54272e-05 0.00022454)
(0.00106616 0.000257098 0.000386885)
(0.00120887 0.000331684 0.000409359)
(0.000991653 6.06501e-05 0.000147899)
(0.00094834 3.22989e-05 0.000174774)
(-4.83967e-05 -1.44233e-05 -0.00039136)
(-2.81217e-05 -1.10476e-05 -0.000356173)
(-5.20798e-05 -2.03765e-06 -0.000357168)
(-4.4247e-05 -6.21398e-06 -0.000294921)
(-7.35736e-05 -2.68812e-07 -0.000302922)
(-5.64438e-05 -3.19329e-06 -0.000245657)
(-6.59411e-05 -7.81977e-07 -0.000212688)
(-6.45462e-05 1.14608e-06 -0.000178027)
(-5.32456e-05 -1.20023e-06 -0.000147063)
(-6.56087e-05 1.46929e-06 -0.000154283)
(-5.71135e-05 -1.91864e-07 -0.00012409)
(-6.03049e-05 2.3621e-06 -0.000125619)
(0.000441471 8.03719e-05 0.000257622)
(0.000459504 9.43351e-05 0.000226446)
(-1.90792e-05 1.38966e-05 0.000133816)
(6.40745e-05 2.19728e-05 0.000190963)
(-1.21083e-05 9.28422e-06 0.000136659)
(-0.000466143 -0.000140186 -0.000446048)
(-0.0004944 -0.000116426 -0.000455331)
(1.90473e-05 3.45109e-05 0.000291366)
(-1.2789e-05 -1.18227e-05 0.000225219)
(9.72211e-06 -9.49314e-07 -4.34836e-05)
(1.24377e-05 2.65849e-06 -3.99987e-05)
(6.21302e-06 1.85988e-08 -3.92862e-05)
(1.91692e-06 -2.45701e-06 -3.80837e-05)
(1.05687e-05 7.69071e-08 -4.05251e-05)
(-0.000118408 -1.85692e-05 -0.000107794)
(-0.000130549 -7.82215e-06 -0.000117065)
(-5.51326e-05 4.49048e-06 -0.000103589)
(-5.58847e-05 5.27076e-08 -0.000105433)
(-1.92457e-05 1.44998e-06 -1.98102e-05)
(-1.9253e-05 1.46561e-06 -1.94615e-05)
(-1.73849e-05 1.52466e-06 -1.89473e-05)
(-1.65213e-05 1.86509e-06 -1.82184e-05)
(-1.88109e-05 8.48376e-07 -1.88327e-05)
(2.23471e-05 -1.54492e-06 -6.62452e-06)
(1.93487e-05 -1.63413e-06 -1.03127e-05)
(-4.08484e-07 4.38216e-06 2.05707e-07)
(3.86106e-07 -1.12163e-07 1.59232e-07)
(8.07054e-06 -9.34367e-07 -4.44913e-07)
(1.92458e-05 3.78432e-07 1.32231e-05)
(1.86686e-05 4.54697e-07 1.35721e-05)
(2.81004e-05 -2.3053e-06 1.97511e-05)
(5.62663e-06 4.89517e-07 -3.43838e-05)
(1.57224e-06 -1.68473e-06 -3.30532e-05)
(4.73121e-06 8.92886e-07 -2.9671e-05)
(2.53777e-05 -2.43864e-06 1.83321e-05)
(2.47498e-05 -2.07778e-06 1.78918e-05)
(2.13439e-05 -1.44596e-06 1.59341e-05)
(-4.427e-05 -4.79996e-06 -4.00596e-05)
(8.50465e-07 -1.03804e-06 -2.85897e-05)
(3.85683e-06 1.15789e-06 -2.56685e-05)
(3.84879e-07 -5.15642e-07 -2.48696e-05)
(-1.07064e-07 -2.86937e-07 -2.14916e-05)
(-5.80311e-07 5.50957e-08 -1.85981e-05)
(-1.27198e-06 1.91269e-07 -1.65919e-05)
(-4.4109e-06 -2.75845e-07 -1.31869e-05)
(-5.05809e-06 -1.05703e-07 -1.23956e-05)
(-5.8803e-06 -2.52829e-09 -1.21089e-05)
(-9.05295e-06 -2.57938e-07 -1.28511e-05)
(-9.34359e-06 -1.9354e-07 -1.33651e-05)
(-4.97126e-05 -1.01201e-06 -4.36158e-05)
(-9.67265e-06 -3.09756e-08 -1.4294e-05)
(-1.85703e-05 -4.14553e-06 -2.26508e-05)
(-1.54666e-05 -4.1059e-06 -1.80909e-05)
(-9.60728e-06 -1.19014e-07 -1.49935e-05)
(-9.57793e-06 3.18069e-08 -1.60975e-05)
(-9.22651e-06 -5.33275e-07 -1.65216e-05)
(-9.4469e-06 3.80063e-08 -1.75986e-05)
(-8.94295e-06 -5.94575e-07 -1.84125e-05)
(-8.43544e-06 -2.5734e-07 -1.886e-05)
(-8.20182e-06 -1.02054e-06 -2.03952e-05)
(-7.93461e-06 -1.59629e-06 -1.91514e-05)
(4.12659e-06 -8.91272e-07 -2.63324e-05)
(3.96217e-06 -2.892e-06 -2.77385e-05)
(2.46732e-06 -2.90561e-06 -2.62002e-05)
(-0.000276419 -6.29366e-05 0.000486743)
(-0.000279429 -6.14216e-05 0.000441371)
(-1.45234e-05 -1.24292e-06 5.41268e-06)
(-1.23611e-05 -1.42944e-06 6.7848e-06)
(-4.08438e-05 -1.84854e-06 1.67948e-05)
(-3.51687e-05 -3.1445e-06 1.55292e-05)
(-4.31107e-06 -9.15367e-06 -5.34727e-06)
(-2.06512e-06 -9.03513e-06 -2.66522e-06)
(-0.000127447 2.53117e-05 0.000184001)
(-0.000110664 3.40436e-05 0.000156493)
(-0.000160193 -1.76269e-05 0.000274288)
(-0.00013997 -2.36795e-05 0.000236114)
(-0.000102897 -6.04662e-06 0.000172768)
(-9.00289e-05 -9.10432e-06 0.0001487)
(-0.000156438 9.39262e-05 0.000467155)
(-0.000216863 0.000169336 0.00065302)
(7.47961e-06 -1.18978e-05 0.000188637)
(-1.1733e-06 -4.64547e-06 0.000159399)
(-0.000102132 2.75652e-05 0.000193052)
(-5.5754e-05 1.31284e-06 0.000167474)
(-0.000180322 -5.66771e-05 0.000490962)
(-0.00018008 -3.96778e-05 0.000491642)
(-0.000179933 -4.47963e-05 0.000525743)
(-0.00019577 -2.099e-05 0.000527306)
(-0.000560005 1.80247e-06 -0.00015145)
(-0.0006426 2.50951e-06 -0.000183644)
(-2.27557e-05 -7.96783e-05 9.95798e-06)
(-2.65497e-05 -7.89422e-05 1.19241e-05)
(-2.14506e-05 -4.3874e-05 6.54967e-05)
(-2.52142e-05 -5.36634e-05 8.18381e-05)
(-2.90511e-05 -5.25577e-05 6.60938e-05)
(-2.32205e-05 -4.0461e-05 5.37545e-05)
(-1.54688e-05 -8.61463e-05 8.48782e-06)
(-1.98961e-05 -9.83539e-05 6.53326e-06)
(-2.34959e-05 -8.34769e-05 8.81938e-06)
(-2.18834e-05 -8.64845e-05 9.21275e-06)
(-2.31359e-05 -0.000128636 -1.56103e-05)
(-1.99742e-05 -0.000111411 -1.41257e-05)
(-7.64299e-06 -5.66219e-05 -3.31689e-06)
(-9.87889e-06 -5.05372e-05 -4.7577e-06)
(-6.09801e-05 -3.12301e-05 9.45467e-05)
(-5.57685e-05 -3.30561e-05 8.93474e-05)
(8.94225e-05 3.88103e-06 -0.000233866)
(9.73982e-05 -5.00971e-06 -0.000218598)
(-0.000137191 -5.94624e-05 -1.2508e-05)
(-0.000136017 -6.64493e-05 -1.47025e-05)
(-0.000298812 -4.80571e-05 0.000146679)
(-0.000320728 -5.22038e-05 0.000137985)
(-0.000291687 -7.45556e-05 -2.60592e-05)
(-0.000285058 -6.17747e-05 -3.52648e-05)
(-0.000173852 0.000193104 0.00023672)
(-0.000167685 0.000241697 0.000219798)
(-0.00024912 -4.4852e-05 1.3177e-05)
(-0.000131168 -4.67482e-05 -1.84887e-05)
(-0.000206903 -7.7572e-05 7.47364e-05)
(-0.000178257 -7.59956e-05 6.31961e-05)
(-0.000227762 -5.19473e-05 5.88608e-05)
(-6.74217e-05 -4.2256e-05 -7.10672e-06)
(-3.91089e-05 -2.09144e-05 6.05105e-05)
(-3.22287e-05 -1.93924e-05 5.58643e-05)
(0.000562256 -0.000223085 0.000417764)
(0.000513164 -0.000194424 0.000347436)
(0.000498457 -0.000280218 0.000228435)
(0.000466615 -0.000206023 0.000258068)
(0.000476921 -0.000240741 0.000253775)
(0.000246669 -0.000164716 0.000185549)
(0.000342595 -0.000221551 0.000216735)
(0.000268591 -0.000164792 0.000199157)
(0.000439716 -0.000201851 0.000351991)
(0.000464759 -0.000247433 0.000336296)
(0.000456875 -0.000240721 0.00029029)
(0.000356909 -0.000242178 0.000188294)
(0.000460554 -0.000290882 0.000187205)
(0.000383887 -0.000216873 0.000240973)
(0.000150016 -8.44665e-05 0.000160777)
(0.000239679 -0.000166706 0.000185362)
(0.000185359 -0.000101465 0.000181564)
(0.000139098 -6.98231e-05 0.000165346)
(7.60516e-05 3.54415e-05 0.000153685)
(0.000279226 0.000109279 4.77201e-05)
(0.000339378 0.000108854 9.74231e-05)
(0.000290571 7.32489e-05 0.000109184)
(0.000307547 5.8506e-05 4.92531e-05)
(0.000367189 6.23605e-05 9.83267e-05)
(0.000331124 9.74564e-05 9.19889e-05)
(0.000297881 7.34091e-05 7.00244e-05)
(9.82432e-05 4.87224e-05 9.82154e-05)
(0.000112939 5.9788e-05 9.53199e-05)
(9.47998e-05 7.84022e-06 0.0001492)
(9.87762e-05 1.23531e-05 0.000149112)
(0.000113487 6.17254e-06 0.000171469)
(9.34305e-05 -1.88914e-06 0.00015289)
(0.00010327 2.7775e-05 0.000147321)
(8.24876e-05 3.08814e-05 0.000114535)
(7.746e-05 3.26435e-05 8.59392e-05)
(7.29817e-05 1.24127e-05 0.000104097)
(6.90393e-05 3.10496e-06 0.000117997)
(4.98659e-05 -7.1595e-06 9.38064e-05)
(6.52126e-05 -1.20454e-05 0.000111262)
(5.55923e-05 1.09912e-05 8.13647e-05)
(4.51123e-05 8.12278e-06 6.8819e-05)
(4.96518e-05 5.67335e-06 7.81753e-05)
(0.000149884 8.76226e-05 5.48742e-05)
(0.00017967 9.73885e-05 7.15422e-05)
(0.000183866 8.83579e-05 8.21789e-05)
(0.000176145 8.41852e-05 5.17234e-05)
(0.000110866 6.13421e-05 8.36649e-05)
(0.000126166 7.03863e-05 5.81054e-05)
(0.000134306 7.70852e-05 3.61918e-05)
(0.000136553 6.60488e-05 4.57507e-05)
(0.000119233 6.27131e-05 5.19353e-05)
(0.000262229 0.000107116 4.09019e-05)
(0.000214735 0.000100696 3.85484e-05)
(0.00027939 9.91638e-05 5.4334e-05)
(0.00025502 7.2659e-05 3.97108e-05)
(0.000225953 9.39567e-05 2.67549e-05)
(0.000207831 7.14168e-05 3.23428e-05)
(7.8393e-05 4.16095e-05 6.18007e-05)
(8.3501e-05 4.07457e-05 6.53144e-05)
(6.62301e-05 2.67946e-05 7.40033e-05)
(9.99135e-05 5.81657e-05 5.23027e-05)
(5.54336e-05 2.12714e-05 6.15627e-05)
(6.63817e-05 3.75272e-05 4.13831e-05)
(0.000112337 5.89824e-05 6.01292e-05)
(0.000147683 7.56395e-05 2.93917e-05)
(7.11079e-05 4.58168e-05 1.34172e-05)
(8.36383e-05 4.46414e-05 3.00218e-05)
(7.24348e-05 4.5117e-05 2.44457e-05)
(0.000133562 7.81065e-05 1.01875e-05)
(0.000165239 8.28748e-05 -9.83334e-06)
(0.000150299 5.82861e-05 2.62106e-05)
(0.000146283 7.13999e-05 1.43505e-05)
(0.000313145 2.78767e-05 0.000547374)
(0.000351102 5.6734e-05 0.000636648)
(0.000318958 -1.59816e-06 0.000568861)
(0.000330388 2.8483e-05 0.000584534)
(0.000358638 0.000100319 0.000400272)
(0.000388676 0.000106074 0.000476505)
(0.000278106 9.57278e-05 0.000392201)
(0.000304241 9.01001e-05 0.00044941)
(0.000294728 0.000105116 0.00044325)
(0.000276624 8.70841e-05 0.000456503)
(0.000392644 0.000156346 0.000510097)
(0.000329381 0.00013254 0.000383768)
(0.000376004 0.000138721 0.00047877)
(0.000238812 9.00253e-05 0.000389967)
(0.000320616 0.000116226 0.000486936)
(0.000408898 0.000130593 0.000388177)
(0.000365098 0.00013483 0.000455908)
(0.000358615 0.000131952 0.000457608)
(0.000411163 0.000134875 0.000565187)
(0.00042733 0.000169448 0.000500922)
(0.000470283 0.000183448 0.000498237)
(0.000460949 0.00019051 0.000469054)
(0.000450911 0.000158114 0.000561028)
(0.000435762 0.000162553 0.000561098)
(0.000404281 7.43291e-05 0.000472339)
(0.000517631 8.00111e-05 0.0005046)
(0.000396411 9.37059e-05 0.000485723)
(0.00030562 9.51111e-05 0.000378652)
(0.000386359 9.18038e-05 0.000473047)
(0.00042248 7.15632e-05 0.000412752)
(0.000316766 5.66773e-05 0.000309954)
(0.000341218 0.000102589 0.000370715)
(0.00036698 8.47099e-05 0.000360377)
(0.00037049 9.47827e-05 0.000351204)
(0.000499763 -4.16802e-05 0.00043892)
(0.000515206 -6.00125e-05 0.000436549)
(0.000529369 -0.000142324 0.000421247)
(0.000411997 -6.39204e-05 0.000375958)
(0.000495953 -0.000121946 0.000328648)
(0.000388103 -9.54991e-06 0.000345568)
(0.000540262 -0.000132756 0.000356066)
(0.000367768 -2.87938e-05 0.000294361)
(0.00047564 -0.000101723 0.000283713)
(0.000559861 -0.000215188 0.000269748)
(0.000345914 5.85045e-05 0.000359439)
(0.000345661 8.66768e-05 0.000376596)
(0.000385478 2.42901e-05 0.000311905)
(0.000382217 6.42512e-05 0.000328833)
(0.000399633 0.000143815 0.000382924)
(0.000431798 0.000148716 0.00051423)
(0.000430708 0.000147178 0.000462505)
(0.000446277 0.000128557 0.000376333)
(0.00050136 0.000163578 0.000419562)
(0.000498047 0.000190012 0.000527549)
(0.000446708 0.000157298 0.000525466)
(0.000473007 0.000155418 0.000555396)
(0.000472962 0.000172893 0.00040013)
(0.000453518 0.000159652 0.000528168)
(0.000453701 0.000164495 0.000527717)
(0.000572192 0.000207649 0.000659236)
(0.000546925 0.000195871 0.000515727)
(0.000405261 0.000117801 0.000371744)
(0.000573832 0.000180907 0.000423294)
(0.000456545 0.000105115 0.000392696)
(0.000586258 0.000148094 0.000398698)
(0.000515264 0.000178854 0.000440489)
(0.000520976 0.000163967 0.000513235)
(0.000696465 0.000262567 0.000525266)
(0.000552637 0.000187883 0.000432174)
(0.000528899 0.000160771 0.000456023)
(0.000738147 0.000260139 0.000483004)
(0.000567523 0.000245232 0.000484933)
(0.000604498 0.00020916 0.000593884)
(0.0005601 0.000181746 0.000627594)
(0.000662811 0.000226297 0.000620628)
(0.000661634 0.000232235 0.000599522)
(0.00034935 0.000138985 0.00045752)
(0.000341326 0.000129991 0.00045289)
(0.000234441 6.95206e-05 0.000426676)
(0.000338632 0.000127821 0.000490422)
(0.000425479 0.000119925 0.000634482)
(0.000389283 0.000110194 0.000584031)
(0.000376892 0.000144647 0.000491827)
(0.000396588 0.000152746 0.000511663)
(0.000379877 0.000146183 0.000560037)
(0.000360867 6.12341e-05 0.000646072)
(0.000311638 4.16846e-05 0.000578633)
(0.000366321 0.000107159 0.00060748)
(0.000348744 9.43971e-05 0.000600752)
(0.000312007 4.10739e-05 0.00050635)
(0.000422778 0.000168705 0.000537692)
(0.000447603 0.00013771 0.000626316)
(0.000399232 0.000121216 0.00060906)
(0.00038468 -6.04559e-06 0.00063578)
(0.000474466 0.000142483 0.000711826)
(0.000356414 5.75995e-05 0.000606703)
(0.00046178 0.000184219 0.000525938)
(0.000501153 0.000193518 0.000565185)
(0.000446806 0.000139629 0.000627093)
(0.000436515 0.000173298 0.000560162)
(0.000504496 0.000202234 0.000564769)
(0.00050207 0.000125559 0.000695969)
(0.000511995 0.000143081 0.000781525)
(0.000407822 4.57045e-05 0.000674929)
(0.000374298 4.48033e-05 0.000613454)
(0.000406083 7.58311e-05 0.000648357)
(0.000461353 0.000128812 0.000688225)
(0.000393828 7.26103e-05 0.000606972)
(0.000512341 0.000217193 0.000602544)
(0.000511607 0.000104278 0.000749585)
(0.00059157 0.000190103 0.000851503)
(0.000280657 1.10355e-05 0.000490185)
(0.00029204 5.44035e-05 0.000499667)
(0.000355912 0.000130987 0.000556911)
(0.000374885 8.31006e-05 0.0006349)
(0.000352838 2.57209e-05 0.000585152)
(0.000436216 9.27643e-05 0.000692926)
(0.000334477 -1.26112e-05 0.000565519)
(0.000336856 3.93654e-05 0.000557657)
(0.000429525 0.000142806 0.000675247)
(0.000358124 4.54704e-05 0.000609307)
(0.000312789 3.66511e-05 0.000524884)
(0.000381056 -4.82688e-06 0.000628665)
(0.000330525 4.23773e-05 0.000555069)
(0.000352385 4.57214e-05 0.0005809)
(0.000428236 4.23596e-05 0.000699643)
(0.000334522 8.73111e-05 0.000575242)
(0.00033362 5.9323e-05 0.000562292)
(0.000425179 -5.79058e-05 0.000651665)
(0.000477883 0.000128071 0.000752512)
(0.000410612 -2.21656e-05 0.000691643)
(0.000523014 6.52939e-05 0.000855155)
(0.000399305 1.17785e-05 0.000667261)
(0.000419637 3.37703e-05 0.000684691)
(0.000528709 0.000159476 0.00076781)
(0.00042382 5.33491e-05 0.000677435)
(0.000484169 3.50259e-05 0.000770934)
(0.000521556 4.49854e-05 0.000854632)
(0.000531335 1.92095e-05 0.000852888)
(0.000419504 3.58596e-05 0.000672161)
(0.000474096 4.16364e-05 0.000752333)
(0.000423966 1.58813e-05 0.000673304)
(0.000483389 4.9576e-05 0.000765187)
(0.000546214 0.000174345 0.000686895)
(0.000534867 0.000191384 0.000615354)
(-2.10074e-05 -4.91175e-05 0.000160225)
(0.000564674 0.000152348 0.000775745)
(0.000490821 0.000137557 0.000665787)
(0.000614635 0.000226632 0.000666311)
(0.00057303 0.000220188 0.000601255)
(0.000608851 0.000213575 0.00067586)
(-2.52657e-05 -4.87928e-05 0.000159665)
(0.000543214 0.000171978 0.000712553)
(0.000562307 0.000206616 0.000657845)
(0.000609371 0.000227401 0.000686758)
(0.000555104 0.000167049 0.000765555)
(0.000623962 0.000176748 0.000912254)
(-2.29057e-05 -4.85735e-05 0.000156943)
(0.000467525 7.02194e-05 0.000728753)
(0.000432899 6.20052e-05 0.000709907)
(0.000466206 9.48024e-05 0.000706072)
(0.00052607 5.90179e-05 0.000795034)
(0.000463579 0.000105703 0.000703258)
(-2.53758e-05 -3.80851e-05 0.000159957)
(0.000574995 0.000234476 0.000663867)
(0.000594259 0.00012067 0.000837396)
(0.000681922 0.000216194 0.000930307)
(0.000654936 0.00021802 0.000774651)
(0.000714768 0.00025195 0.000649798)
(0.00077245 0.00028538 0.00065599)
(0.000644634 0.000189217 0.000833797)
(0.00060314 0.000173988 0.000747283)
(0.000632825 0.000257046 0.000626802)
(0.000666636 0.000236879 0.000679688)
(0.000642266 0.000203602 0.000760218)
(0.000711067 0.000244223 0.000810208)
(0.000737133 0.000282689 0.000778174)
(0.000658107 0.000204583 0.00083781)
(0.000684495 0.00017057 0.000941248)
(0.000560939 0.000136014 0.000784553)
(0.000627203 0.000139643 0.000975783)
(0.000509507 0.000103264 0.00075366)
(0.000587735 8.1151e-05 0.000889111)
(0.000731126 0.000241319 0.000927022)
(0.000606632 0.000195208 0.00076845)
(0.000646485 0.000169148 0.000922315)
(0.000539499 9.04536e-05 0.000869995)
(0.00055812 0.000149147 0.000791141)
(0.000731053 0.000133051 0.00102569)
(0.000640337 0.000146085 0.000994014)
(0.000590894 6.60053e-05 0.000948613)
(0.000591856 2.12008e-05 0.000942887)
(0.000474961 2.90523e-05 0.000788146)
(0.000467165 6.43834e-05 0.000734166)
(0.00060208 0.000120229 0.000871174)
(0.000615654 0.000127732 0.000961696)
(0.000577451 2.82012e-05 0.000904483)
(0.000594211 4.00262e-05 0.00093564)
(0.000603089 -3.72419e-05 0.000937582)
(0.000583703 4.10072e-05 0.000893916)
(0.000670088 0.000132392 0.000972747)
(-3.13498e-05 -4.31844e-05 0.000168344)
(0.000502518 -1.03878e-06 0.000822596)
(0.000457102 5.66879e-05 0.0007199)
(0.000651137 0.000152917 0.000959024)
(0.00068026 0.000192383 0.00101857)
(0.000566775 -8.18691e-07 0.000946563)
(0.000707435 6.56542e-05 0.0011165)
(0.000527893 4.39896e-05 0.000830257)
(0.000650986 3.21835e-05 0.000998683)
(0.000520809 5.61488e-05 0.000824338)
(0.000501207 -1.50497e-05 0.000764412)
(0.000643046 -8.81092e-05 0.000953763)
(0.000692559 3.55173e-05 0.00109746)
(0.000692931 4.92375e-06 0.00108672)
(0.000364741 -5.10082e-05 0.000530138)
(0.000286947 1.94347e-05 0.000444624)
(0.000321386 9.33865e-06 0.000460948)
(0.000310384 9.31293e-06 0.00047438)
(0.000223146 3.99101e-05 0.000398487)
(0.000296444 2.76578e-05 0.000458873)
(0.000378742 2.87176e-06 0.000491848)
(0.000296799 4.60956e-05 0.000463771)
(0.000347038 4.43173e-05 0.000616342)
(0.000348541 6.10334e-05 0.000590691)
(-2.31181e-05 -4.18233e-05 0.000153519)
(-2.67862e-05 -4.38561e-05 0.000160419)
(-2.47862e-05 -4.05219e-05 0.000148596)
(-2.62687e-05 -3.68438e-05 0.000149459)
(0.000389197 3.2995e-05 0.000608948)
(0.000352225 7.47026e-05 0.000558153)
(0.000418991 1.46918e-05 0.000562188)
(0.000375603 3.19279e-05 0.00050502)
(0.000394579 -1.22443e-05 0.000510162)
(0.000391152 4.74077e-06 0.000481653)
(-2.9711e-05 -3.62346e-05 0.000154837)
(0.000412366 1.89549e-06 0.000531078)
(-3.5034e-05 -2.89066e-05 0.000164913)
(-3.01262e-05 -3.46153e-05 0.000155927)
(0.000437276 1.28714e-05 0.00022224)
(0.000434196 1.66663e-05 0.00026816)
(0.000414753 -1.27384e-05 0.000255782)
(-3.34664e-05 -3.44592e-05 0.000153954)
(-2.65199e-05 -3.83403e-05 0.000164589)
(-2.59155e-05 -4.18794e-05 0.000161132)
(-3.23191e-05 -3.37814e-05 0.000175025)
(-3.38607e-05 -4.23215e-05 0.000182632)
(-2.97032e-05 -3.03061e-05 0.000166639)
(-2.85664e-05 -2.6257e-05 0.00015944)
(-3.46644e-05 -3.44985e-05 0.000159027)
(0.000385983 6.31043e-05 7.65535e-05)
(0.00044585 6.35936e-05 0.000139347)
(0.000367158 3.33235e-05 8.43515e-05)
(0.000352748 6.58529e-05 6.43673e-05)
(0.000368835 4.72219e-05 8.7604e-05)
(0.000428918 1.21445e-05 0.000129354)
(0.000415034 1.33911e-05 0.000188846)
(0.000442837 -2.82692e-05 0.000198317)
(0.000435969 2.02908e-06 0.000165392)
(0.000415702 1.1257e-06 0.000205431)
(0.000404974 2.98694e-05 9.46218e-05)
(0.000422779 -6.44529e-06 0.000101282)
(0.000429661 -8.32029e-06 0.000381001)
(0.000407599 6.20131e-06 0.000414902)
(0.000396759 -1.89962e-06 0.000433005)
(0.000358325 6.11668e-06 0.000415897)
(0.000388864 3.06954e-06 0.000454959)
(0.000326718 2.44075e-05 0.000422954)
(0.000457394 -3.27555e-06 0.000412742)
(0.000463915 -2.4162e-05 0.000354045)
(0.000466273 -1.35919e-05 0.000339261)
(0.000407226 -3.91161e-06 0.000350734)
(0.000389791 -2.17406e-05 0.000441814)
(0.000404445 -1.37135e-05 0.000396631)
(0.000430094 2.24334e-05 0.000510267)
(0.000494268 -3.28745e-05 0.000250946)
(0.000458904 -4.93975e-05 0.000334494)
(0.000468476 -5.05457e-05 0.000281304)
(0.000482382 -3.26337e-05 0.000353511)
(0.000515229 -8.30316e-05 0.00023319)
(0.00045623 -4.66183e-05 0.000386614)
(0.000426034 -4.1634e-05 0.000448631)
(0.000464988 -6.90469e-05 0.000429859)
(0.0004689 -1.42006e-05 0.000517701)
(0.000548666 -9.75385e-05 0.00041224)
(0.000509069 -9.87286e-05 0.000340837)
(0.000519813 -8.9032e-05 0.00027678)
(0.00050597 -6.60243e-05 0.000346577)
(0.000451104 -4.68074e-05 0.000181625)
(0.000447291 -3.79273e-05 0.000146026)
(0.000479419 -4.08599e-05 0.000186104)
(0.000325132 7.39188e-05 3.48594e-05)
(0.00033592 5.71429e-05 6.1441e-05)
(0.000289 8.20999e-05 1.36642e-05)
(0.000314193 6.92655e-05 3.1823e-05)
(0.000357673 3.2013e-05 5.40658e-05)
(0.000402978 2.40406e-07 7.67193e-05)
(0.000331395 4.60839e-05 5.29453e-05)
(0.000220988 8.04257e-05 1.40205e-06)
(0.000303921 8.82335e-05 1.77741e-05)
(0.000138416 6.72939e-05 4.04858e-05)
(0.000149682 6.51286e-05 1.71236e-05)
(0.000251623 9.53327e-05 1.01875e-05)
(0.000266159 7.12259e-05 4.62326e-05)
(0.000244963 3.96535e-05 -1.3855e-05)
(0.00028793 4.88325e-05 3.14535e-05)
(0.000346927 3.80441e-05 2.18576e-05)
(0.00024301 7.57826e-05 8.4438e-06)
(0.000233043 5.44472e-05 1.3075e-05)
(0.000311395 5.44963e-05 1.95573e-05)
(0.0005799 -0.000131903 0.00020065)
(0.000566533 -0.000136126 0.000353812)
(0.000552653 -0.000133368 0.000280984)
(0.000579219 -0.000122651 0.000358398)
(0.000458771 -2.71516e-05 0.000115993)
(0.00050241 -9.94212e-05 0.000179003)
(0.000461858 -5.08638e-05 0.000156832)
(0.000467137 -7.15742e-05 0.000160459)
(0.000417314 -1.52172e-05 7.3394e-05)
(0.000452987 -5.58457e-05 0.000108792)
(0.000539334 -0.000107434 0.000143968)
(0.000584438 -0.000125541 0.00018066)
(0.000611584 -0.000192626 0.00024968)
(0.000574223 -0.000132952 0.000172807)
(0.000548586 -0.000140969 0.000202627)
(0.000383389 1.71163e-05 4.41711e-05)
(0.000395245 -6.96081e-06 4.44776e-05)
(0.000425651 -5.59829e-05 0.000100663)
(0.00039759 -7.25627e-06 7.29008e-05)
(0.000413136 -3.40131e-05 6.34807e-05)
(0.000326472 3.39126e-05 4.78518e-05)
(0.000373717 -4.02557e-06 4.52089e-05)
(0.000549975 -9.95098e-05 0.000106801)
(0.000580377 -0.000154121 0.000124683)
(0.000601352 -0.00015559 0.000114909)
(0.000465576 -6.83832e-05 0.000114057)
(0.000428622 -3.15379e-05 0.000126099)
(0.000476997 -6.79559e-05 9.32146e-05)
(0.000306106 5.40082e-05 0.000523038)
(0.000324888 3.47818e-05 0.000539742)
(0.000367169 -1.59825e-05 0.00057566)
(0.000365885 7.37309e-06 0.000568167)
(0.000312681 7.25374e-05 0.000527479)
(0.000353749 6.71215e-06 0.000535233)
(0.000453581 -2.70705e-05 0.000676356)
(0.000324497 2.80045e-05 0.000530688)
(0.00035628 1.44805e-05 0.000550011)
(0.000411939 2.48677e-05 0.000633967)
(0.000403666 -1.28197e-05 0.000559686)
(0.000371456 1.05323e-05 0.000523704)
(0.000414579 1.58129e-05 0.000593265)
(0.000482948 -1.83772e-05 0.000685947)
(0.000489854 1.95394e-05 0.000806609)
(0.000367612 4.8618e-05 0.000588972)
(0.000420727 4.87093e-05 0.000680749)
(0.000404336 5.22677e-05 0.000676997)
(0.000432667 2.91482e-06 0.000664304)
(0.000573485 -6.88777e-05 0.000810459)
(0.000530448 -0.000115668 0.000708119)
(0.000438786 6.29521e-05 0.000714906)
(0.000459083 -1.49643e-05 0.000676379)
(0.000412107 4.94561e-06 0.000580357)
(0.000464836 5.99815e-06 0.000661314)
(0.000453846 -3.99894e-05 0.000565922)
(0.000411276 -3.10602e-05 0.000490943)
(0.000461005 -1.40337e-05 0.000587355)
(-3.62101e-05 -2.99908e-05 0.000160905)
(0.000528814 -0.00011038 0.000632355)
(0.000499265 -7.81054e-05 0.00053514)
(0.000542807 -2.99937e-05 0.000661117)
(0.000429785 -2.37705e-05 0.00061476)
(0.000499252 -5.68876e-05 0.000633433)
(0.000566805 -4.50244e-05 0.000740704)
(0.00051726 -0.000106736 0.000522704)
(0.000509779 -9.91992e-05 0.000437137)
(0.00049513 -4.3156e-05 0.00054201)
(0.000634756 -4.15123e-05 0.000968093)
(0.000443102 5.71702e-06 0.000678453)
(-3.63581e-05 -2.58209e-05 0.000148724)
(0.000473502 -2.27931e-05 0.000676628)
(0.000547053 -1.42461e-05 0.000798966)
(0.000619638 -8.86477e-05 0.000871227)
(0.000633777 -0.000133285 0.000804049)
(0.000465393 -6.61571e-05 0.000580611)
(-4.14746e-05 -2.12632e-05 0.000160478)
(0.000577812 -0.000209804 0.000535045)
(0.000601288 -8.1414e-05 0.000722153)
(0.000610003 -0.00010138 0.000829115)
(0.000539906 -0.00010721 0.000681213)
(0.000599797 -6.79303e-05 0.000794676)
(0.000664943 -0.000145057 0.00077482)
(0.000596281 -0.00013182 0.000620288)
(0.000728217 -0.000244572 0.000787111)
(0.000651017 -0.000253822 0.000608474)
(0.000679333 -0.000174713 0.000762868)
(0.000480094 1.5767e-05 0.000751497)
(0.00048496 -3.97261e-05 0.000708474)
(0.00059607 -5.60927e-05 0.000860291)
(0.000639774 -5.87981e-05 0.000955274)
(0.000628504 -0.000156762 0.00087094)
(0.00057659 2.05088e-05 0.000867185)
(0.000656538 -0.000113854 0.00097873)
(0.000620033 5.68793e-05 0.000967729)
(0.000581603 -6.30386e-05 0.00085992)
(0.000571698 -9.85405e-05 0.000795922)
(0.000682028 -0.000138049 0.000938635)
(0.000564325 -0.00011671 0.000775137)
(0.000618125 -0.000171061 0.000746932)
(0.000699827 -0.000155828 0.000886095)
(0.000799229 -0.000243165 0.000949735)
(0.000615691 -0.000236626 0.000698406)
(0.000731702 -0.000340709 0.000632962)
(0.000743037 -0.000190787 0.000839897)
(0.000612246 -0.000173818 0.000422626)
(0.000510835 -0.000170423 0.000447607)
(0.000598145 -0.0001872 0.000455484)
(0.000581858 -9.20636e-05 0.000596759)
(0.000638993 -0.000169911 0.000599944)
(0.000638293 -0.000208673 0.000418672)
(0.000588896 -0.000200202 0.000369073)
(0.00065447 -0.000209923 0.000261595)
(0.000594436 -0.000157393 0.000355352)
(0.00068646 -0.000246614 0.000428182)
(0.000698921 -0.000290613 0.000299226)
(0.0006827 -0.000239431 0.000400032)
(0.000709991 -0.00025813 0.000602456)
(-4.41908e-05 -1.70983e-05 0.000158721)
(0.000680886 -0.000303721 0.000447398)
(0.000687598 -0.000227268 0.000591665)
(0.000810872 -0.000371871 0.000707498)
(0.000791365 -0.000398893 0.000483379)
(0.000742941 -0.000270167 0.000652246)
(-4.74788e-05 -1.24138e-05 0.000160029)
(0.000771817 -0.000357726 0.000485689)
(0.000810519 -0.00037218 0.00035404)
(-3.59819e-05 -3.43427e-05 0.000183122)
(0.000707719 -0.000268728 0.000459885)
(0.000637269 -0.000209923 0.000270242)
(-4.00312e-05 -2.70608e-05 0.000186369)
(0.000647694 -0.000188373 0.000229266)
(0.000632328 -0.000202073 0.000237794)
(-3.42712e-05 -3.41719e-05 0.000168434)
(0.000705906 -0.000199882 0.000182717)
(-3.74206e-05 -1.6727e-05 0.000169783)
(-4.07084e-05 -2.86409e-05 0.000183223)
(0.000725658 -0.00031897 0.000253353)
(0.000678157 -0.000240786 0.000226164)
(-4.1863e-05 -2.72214e-05 0.000182881)
(0.000673601 -0.00024339 0.00028593)
(0.000415375 -0.000252537 0.0002206)
(-4.53957e-05 -1.98039e-05 0.000178175)
(0.000477294 -0.000300475 0.000175581)
(0.000381928 -0.000243702 0.000173067)
(-4.44186e-05 -2.04516e-05 0.000182297)
(0.000283236 -0.000187667 0.000182479)
(0.000351346 -0.000238648 0.000181506)
(-4.8308e-05 -1.30741e-05 0.000190999)
(0.000254955 -0.000178604 0.000149056)
(0.000309176 -0.000182787 0.00022987)
(-3.71511e-05 -1.9631e-05 0.000164331)
(-3.36635e-05 -1.74146e-05 0.000151573)
(0.000354356 -0.000223085 0.000175321)
(-3.92882e-05 -2.38017e-05 0.000154035)
(-4.11434e-05 -1.82294e-05 0.000168311)
(0.000178854 -0.000114636 0.000151915)
(-3.95971e-05 -1.58554e-05 0.000152901)
(-4.35151e-05 -1.32395e-05 0.000166695)
(0.000239368 -0.000163445 0.000170326)
(-4.21119e-05 -1.26312e-05 0.000151067)
(0.000163525 -0.000107868 0.000132386)
(9.12632e-05 -4.99922e-05 0.000101111)
(0.000152399 -8.99367e-05 0.000152378)
(0.000106755 -4.93232e-05 0.000121979)
(7.51653e-05 -3.58486e-05 9.04791e-05)
(0.000120919 -5.85351e-05 0.000130863)
(8.58066e-05 -5.38281e-05 8.63007e-05)
(0.000180273 -9.90513e-05 0.000174529)
(0.000219345 -0.000129149 0.000169397)
(0.000232797 -0.000198627 8.64537e-05)
(0.00037004 -0.000274727 0.000116665)
(0.000261638 -0.000181457 0.000141936)
(0.000105152 -8.23587e-05 6.99792e-05)
(0.000222882 -0.000179291 0.000105506)
(0.000160744 -0.000112418 0.000119123)
(0.000118552 -8.20169e-05 0.00010741)
(0.000160297 -0.000103395 0.000137851)
(0.000210486 -0.000139968 0.0001316)
(5.11322e-05 -5.82128e-05 2.56198e-05)
(0.000115735 -7.8443e-05 9.44736e-05)
(8.59667e-05 -8.22869e-05 5.78361e-05)
(4.42187e-05 3.68163e-05 8.98946e-05)
(5.23578e-05 1.28144e-05 9.39589e-05)
(5.13706e-05 3.61035e-05 0.000101995)
(6.02621e-05 5.23113e-05 0.000110708)
(7.27407e-05 4.61713e-05 0.000113897)
(3.59329e-05 5.00766e-05 7.41277e-05)
(-2.55129e-05 -3.87306e-05 0.000144883)
(2.5796e-05 6.18219e-05 7.43206e-05)
(2.43977e-05 4.23727e-05 4.29125e-05)
(4.72455e-05 4.94272e-05 7.48766e-05)
(2.57291e-05 4.94151e-05 3.86084e-05)
(7.09308e-05 -1.70259e-05 0.000101573)
(-2.83278e-05 -3.54382e-05 0.000147234)
(3.73281e-05 5.36452e-06 6.88539e-05)
(6.69587e-05 -1.10571e-05 0.000100347)
(5.34023e-05 -8.22176e-06 7.6674e-05)