/*--------------------------------*- C++ -*----------------------------------*\
  =========                 |
  \\      /  F ield         | OpenFOAM: The Open Source CFD Toolbox
   \\    /   O peration     | Website:  https://openfoam.org
    \\  /    A nd           | Version:  7
     \\/     M anipulation  |
\*---------------------------------------------------------------------------*/
FoamFile
{
    version     2.0;
    format      ascii;
    class       volVectorField;
    location    "350";
    object      wallShearStress;
}
// * * * * * * * * * * * * * * * * * * * * * * * * * * * * * * * * * * * * * //

dimensions      [0 2 -2 0 0 0 0];

internalField   uniform (0 0 0);

boundaryField
{
    wall
    {
        type            calculated;
        value           nonuniform List<vector> 
73765
(
(7.68759e-11 -2.85802e-11 -5.07522e-11)
(2.11982e-10 -1.54855e-11 1.9696e-10)
(-1.74148e-11 -1.4818e-11 2.02011e-12)
(-1.35141e-10 -3.32828e-10 2.05845e-10)
(-5.13004e-10 -1.05174e-09 4.65615e-10)
(4.23613e-11 3.3552e-11 2.84434e-10)
(-4.9266e-10 -1.05237e-10 5.42372e-10)
(-1.04862e-10 -2.4134e-11 9.88581e-11)
(-4.40915e-10 -1.38795e-09 1.93222e-10)
(1.07133e-10 5.71891e-11 3.92814e-10)
(-3.2312e-10 4.00225e-11 5.61982e-10)
(1.57528e-10 2.89891e-10 2.0745e-10)
(3.1931e-11 2.85529e-10 4.26966e-10)
(-1.40525e-10 -2.15933e-10 1.72568e-10)
(-3.0343e-10 -5.01517e-10 2.53198e-10)
(-1.03243e-09 -1.20145e-09 6.64858e-10)
(-7.21851e-10 -7.28089e-10 7.31141e-10)
(-5.29972e-10 -1.11695e-09 2.39772e-10)
(-8.81489e-11 -1.3618e-09 -3.3853e-12)
(-7.28356e-11 -1.30635e-09 1.77333e-10)
(-2.75296e-10 -1.28141e-09 4.62526e-10)
(-1.63163e-10 -1.06498e-09 6.40751e-11)
(-4.42166e-10 -8.99379e-10 2.41869e-10)
(-2.28967e-10 -8.02107e-10 1.67782e-11)
(4.61278e-11 9.16113e-11 2.65978e-10)
(5.41552e-11 8.19838e-11 1.90823e-10)
(1.69092e-10 2.30408e-11 3.2997e-10)
(2.63363e-10 -1.50612e-10 -1.30976e-10)
(1.58233e-11 7.35626e-12 -6.51505e-12)
(-1.18399e-10 -8.21499e-12 1.42606e-11)
(-1.17104e-10 3.96724e-12 2.50774e-11)
(-9.95922e-11 -4.32295e-11 -9.88545e-12)
(-1.69363e-10 -9.84972e-11 1.39879e-10)
(-7.73887e-11 -1.07394e-09 -2.45259e-10)
(-3.80657e-10 -1.71452e-09 -1.8039e-11)
(8.48555e-11 -9.7041e-10 2.12989e-12)
(-1.37489e-09 -1.72216e-09 7.17498e-10)
(-4.26286e-10 -1.04667e-09 2.4606e-10)
(-1.10465e-09 -1.48013e-09 9.14195e-10)
(2.95717e-11 8.63268e-12 8.30563e-11)
(1.00351e-10 1.04497e-10 2.76015e-10)
(7.42069e-11 4.72511e-12 1.05138e-10)
(3.95424e-11 2.92266e-11 1.63675e-10)
(1.99463e-10 1.5006e-10 3.94912e-10)
(1.9077e-10 1.01599e-10 2.74877e-10)
(1.56499e-10 6.21492e-11 2.88419e-10)
(2.86019e-10 -1.28581e-10 -1.04605e-10)
(1.89635e-10 -1.0271e-10 -5.35016e-11)
(-1.81377e-10 -9.89393e-11 6.0414e-10)
(-2.36495e-10 -1.11066e-11 4.35364e-10)
(-1.08296e-10 -1.13065e-10 2.32086e-10)
(-1.45968e-10 -1.63923e-11 -6.88853e-11)
(4.56179e-11 1.05004e-11 2.66242e-11)
(-1.80861e-10 -2.42983e-11 6.84268e-11)
(-4.17177e-10 -7.45959e-10 3.52628e-10)
(-2.24168e-10 -4.4645e-10 2.56239e-10)
(-2.12006e-10 -5.68113e-10 3.32551e-10)
(6.06682e-11 -4.76025e-11 2.11395e-10)
(7.17248e-11 -1.26958e-10 1.70787e-10)
(2.88742e-10 -1.82267e-09 -1.10787e-10)
(2.08716e-10 -1.28787e-09 -7.80017e-11)
(1.29786e-10 -1.198e-09 -6.29415e-11)
(-7.50167e-10 -1.77469e-09 1.44919e-11)
(-2.62869e-10 -1.70561e-09 -1.03608e-10)
(-3.78065e-11 1.64476e-11 1.874e-12)
(1.66341e-11 1.84723e-11 -2.3084e-11)
(1.47742e-11 2.047e-11 -2.8803e-11)
(8.25145e-12 2.14284e-11 -3.25279e-11)
(-5.8001e-12 2.12562e-11 -3.69103e-11)
(1.89833e-10 -1.24358e-09 6.25981e-11)
(-6.57929e-10 -1.35078e-09 3.34363e-10)
(-4.03935e-10 -1.35467e-09 8.30904e-11)
(-1.07795e-09 -1.38169e-09 3.99152e-10)
(-1.02851e-09 -1.60409e-09 5.03663e-10)
(-7.51387e-10 -1.07264e-09 2.19532e-10)
(-5.54273e-10 -8.90905e-10 2.60676e-10)
(-6.17888e-10 -1.19174e-09 7.79677e-11)
(-8.93958e-10 -8.2284e-10 8.28892e-10)
(-1.18305e-09 -1.31055e-09 6.17617e-10)
(-6.03518e-10 -7.72782e-10 8.31654e-10)
(-4.7475e-10 -6.50667e-10 5.72947e-10)
(-1.31626e-10 -1.34958e-09 5.45005e-11)
(-2.47786e-10 -9.95375e-10 1.12054e-10)
(-4.04187e-10 -1.55549e-09 1.15394e-09)
(-3.0487e-10 -1.6644e-09 1.11333e-09)
(-4.39571e-10 -1.28049e-09 7.61529e-10)
(-3.8195e-10 -1.29394e-09 5.45373e-10)
(-1.96179e-10 -9.8894e-10 1.11212e-10)
(-1.00753e-09 -1.8367e-09 1.3096e-09)
(-5.27268e-10 -8.88538e-10 2.38099e-10)
(-5.04349e-10 -1.2187e-09 3.2079e-10)
(2.3039e-10 5.26754e-11 3.66286e-10)
(-2.20939e-10 6.98823e-11 4.0107e-10)
(-1.57036e-10 -1.61057e-09 -7.95459e-11)
(2.83842e-10 -1.67612e-09 -1.34177e-10)
(-3.70084e-10 -1.90776e-09 -4.59043e-11)
(-1.49407e-10 -2.32821e-11 6.76408e-10)
(-2.49136e-10 -3.65409e-11 4.94434e-10)
(-1.24066e-10 -3.42866e-11 2.11125e-11)
(-1.44484e-10 -1.08306e-09 7.85989e-11)
(4.30748e-11 6.95563e-11 1.53021e-10)
(-1.69631e-10 -3.89299e-11 5.11267e-10)
(-9.37724e-11 2.5643e-11 -8.13279e-11)
(5.17945e-11 -2.39917e-12 1.566e-11)
(3.44192e-10 3.84838e-10 5.40574e-10)
(6.72514e-10 3.71905e-10 6.94892e-10)
(-1.51844e-10 -6.81524e-11 -6.71258e-12)
(-1.69824e-10 -1.42985e-10 1.46622e-10)
(-1.50602e-10 -1.42323e-10 1.51973e-10)
(-9.19131e-11 -3.1666e-12 3.93854e-12)
(-1.33621e-10 -1.56651e-11 3.14117e-11)
(1.35624e-10 -5.18003e-10 -3.21193e-11)
(-1.5599e-10 -1.25808e-09 -2.37402e-10)
(-1.18515e-10 -9.851e-10 -2.197e-10)
(-2.20608e-10 -1.50974e-09 -1.91856e-10)
(4.02884e-11 -8.00118e-11 1.77939e-10)
(-2.82009e-11 1.80645e-11 -1.66595e-11)
(-2.02772e-10 -7.85363e-10 -5.1865e-12)
(-6.13909e-10 -1.61199e-09 3.2327e-10)
(-4.46036e-10 -1.34039e-09 6.96179e-10)
(2.17368e-10 -8.6478e-12 2.01593e-10)
(2.10943e-10 -5.92812e-11 1.34275e-11)
(2.21586e-10 -1.42651e-10 -8.65157e-11)
(-1.75139e-10 -6.29493e-11 1.0511e-10)
(-1.96916e-10 -1.33554e-09 -2.31463e-10)
(-1.63692e-10 -1.00378e-09 -2.15349e-10)
(-2.69004e-11 -8.16889e-10 -2.08205e-11)
(-3.86309e-10 -1.75296e-09 9.29679e-12)
(-9.20193e-10 -1.50699e-09 6.3176e-10)
(-1.11171e-10 -8.59459e-10 2.3801e-12)
(-1.95368e-10 -8.28965e-10 -3.814e-11)
(8.67144e-11 8.89459e-11 3.38231e-10)
(1.19884e-10 9.80471e-11 3.29725e-10)
(2.25552e-10 -5.37955e-12 2.6942e-10)
(1.83056e-10 -1.48703e-11 2.72805e-10)
(3.28921e-10 -1.19912e-10 -7.99036e-11)
(3.12123e-10 -1.16546e-10 -4.00832e-11)
(2.49307e-10 -8.21475e-11 -1.5987e-11)
(2.60549e-10 -1.23677e-10 -2.05642e-11)
(2.27089e-10 -8.58562e-11 -3.09717e-11)
(2.60754e-10 -1.26839e-10 -6.15132e-11)
(2.38326e-10 -8.8502e-11 -2.55746e-11)
(1.79164e-10 -5.31363e-11 -1.62638e-11)
(1.37697e-10 -5.63419e-11 -2.17564e-11)
(1.828e-10 -8.67182e-11 -2.96405e-11)
(1.65745e-10 -8.6284e-11 -1.63851e-11)
(1.63171e-10 -8.47095e-11 -9.52959e-11)
(-1.74842e-10 -8.23874e-11 6.56477e-10)
(-2.26784e-10 -7.24016e-11 6.80767e-10)
(-9.83286e-13 -3.41131e-13 -7.56487e-13)
(1.36419e-10 1.83804e-09 8.9866e-09)
(-1.33207e-10 -1.08213e-11 -6.79544e-11)
(-1.46627e-10 -1.77097e-11 -8.90352e-11)
(7.35083e-10 4.3357e-10 5.60434e-10)
(4.24803e-10 3.59119e-10 2.972e-10)
(9.22434e-10 3.77426e-10 4.44411e-10)
(4.56098e-10 4.3358e-10 5.03364e-10)
(7.79996e-10 4.41317e-10 6.61193e-10)
(7.57716e-10 3.98653e-10 5.41943e-10)
(-1.41497e-10 -3.71317e-11 2.74666e-11)
(-1.72164e-10 -1.32326e-10 2.91631e-11)
(-1.8934e-10 -1.33774e-10 5.98918e-11)
(-1.26222e-10 -6.15679e-11 1.68226e-11)
(-9.63379e-11 1.47031e-11 2.84557e-11)
(-1.59354e-10 -1.97839e-10 2.2151e-11)
(-1.59188e-10 -2.74081e-10 1.93279e-10)
(-1.58269e-10 -1.49959e-10 7.79505e-12)
(-1.5508e-10 -2.14779e-10 4.0776e-11)
(-1.7043e-10 -2.21813e-11 9.45545e-11)
(-1.82767e-10 -3.0407e-11 4.59662e-11)
(-1.75712e-10 -4.29159e-11 6.96232e-11)
(-1.46336e-10 9.36356e-12 9.89594e-11)
(-1.69507e-10 -1.98994e-11 6.93696e-11)
(-1.80044e-10 -6.15597e-11 2.76348e-11)
(-1.38539e-10 -1.31801e-10 1.39652e-10)
(-2.08267e-10 -1.16837e-10 7.54192e-11)
(-1.01446e-10 -1.54697e-11 2.13684e-12)
(-3.81674e-10 -7.65026e-10 4.96274e-10)
(-1.442e-10 -2.28946e-10 -4.79107e-11)
(1.0578e-10 -3.79901e-10 1.08382e-10)
(-1.07383e-10 -7.8848e-10 -1.7237e-10)
(-8.15945e-12 -6.56e-10 1.8149e-11)
(9.80268e-11 -3.77979e-10 1.31691e-10)
(-1.44609e-10 -9.50591e-13 1.08577e-10)
(-1.68345e-10 -1.22751e-11 1.07864e-10)
(-7.71509e-11 6.22862e-14 1.20111e-10)
(-1.68805e-10 -4.23747e-11 1.2078e-10)
(-1.42646e-10 -1.01049e-10 1.24341e-10)
(-1.3945e-10 -6.01858e-11 3.06236e-11)
(-7.61578e-11 -2.01995e-10 1.81856e-10)
(-2.44786e-10 -2.18449e-09 -4.01363e-10)
(-8.14476e-11 -8.03234e-10 -1.22025e-10)
(-6.68564e-11 -3.8775e-12 1.31298e-10)
(1.05606e-10 -9.99698e-10 -1.05446e-10)
(-5.37769e-10 -2.44567e-09 -1.08485e-10)
(-1.84801e-10 -1.49505e-09 -1.48783e-10)
(-7.40711e-10 -1.63939e-09 6.90206e-12)
(-7.38411e-10 -1.78673e-09 1.22008e-11)
(-1.67988e-12 2.21121e-11 -3.55606e-11)
(-1.32245e-09 -1.69374e-09 3.66389e-10)
(-1.00367e-09 -1.69177e-09 7.60688e-10)
(-6.77136e-10 -1.90016e-09 3.27855e-10)
(-5.01976e-10 -1.36446e-09 6.62338e-11)
(-1.24027e-09 -1.72853e-09 1.16694e-09)
(-5.90184e-10 -7.69602e-10 3.92552e-10)
(-1.34307e-09 -1.80565e-09 6.22915e-10)
(-1.59882e-10 -1.36753e-09 2.32847e-10)
(-4.3477e-11 -8.14939e-10 5.94689e-11)
(-1.6888e-10 -1.74235e-09 3.67561e-10)
(-8.94912e-11 -1.15658e-09 2.19028e-11)
(-8.18114e-10 -1.26848e-09 3.97066e-10)
(-9.25207e-10 -1.81346e-09 5.6172e-10)
(-7.53975e-10 -1.38032e-09 4.20747e-10)
(-2.21534e-10 1.32118e-10 4.0637e-10)
(-1.18148e-11 -1.7904e-11 5.67153e-12)
(-2.46341e-10 -6.60672e-12 5.07621e-10)
(-2.15784e-10 -2.00462e-09 -4.05617e-10)
(-4.89313e-10 -1.75868e-09 2.50031e-11)
(-1.26111e-10 -4.09798e-11 4.15779e-10)
(3.00187e-10 -7.9788e-11 -2.76338e-11)
(-4.68948e-10 -1.74171e-09 4.87304e-11)
(-5.68841e-10 -1.17048e-09 4.92691e-10)
(2.93411e-10 1.30133e-10 3.12019e-10)
(2.2239e-10 -1.06116e-10 -2.41524e-11)
(2.09127e-10 -8.05969e-11 -2.83832e-11)
(1.10513e-11 3.16219e-12 -8.58421e-12)
(-9.47612e-11 -6.91465e-10 6.08574e-11)
(1.39567e-10 -7.82629e-11 -5.36661e-11)
(-3.68649e-10 -7.03056e-11 6.59043e-10)
(-8.05683e-11 2.25476e-11 -6.94354e-11)
(7.0781e-11 2.99124e-11 3.61893e-11)
(-1.68207e-10 -1.7684e-10 7.16787e-11)
(-1.63558e-10 -1.7429e-10 6.74039e-11)
(-6.12375e-11 1.97337e-12 1.27578e-10)
(8.03832e-12 4.69409e-13 -1.92676e-11)
(1.18475e-12 1.43453e-12 -1.85303e-12)
(2.68154e-10 -5.76123e-11 3.06684e-10)
(5.49095e-11 2.17591e-12 7.92187e-11)
(3.72034e-12 -5.16991e-11 -1.05108e-10)
(3.84428e-12 7.27506e-12 3.66084e-11)
(1.32761e-11 3.74754e-12 -5.55856e-12)
(5.78676e-11 -7.04548e-12 4.21304e-11)
(2.13711e-10 -6.90512e-11 2.12689e-10)
(1.94603e-10 -3.77255e-11 3.15028e-10)
(-1.05204e-10 2.58693e-11 1.17962e-10)
(1.85633e-11 3.01596e-12 -3.88851e-11)
(-2.5997e-11 -1.12012e-11 -1.01778e-11)
(-1.5486e-11 -1.19054e-11 -1.74665e-12)
(-4.44224e-11 -1.62008e-10 3.4929e-10)
(3.05436e-10 -1.17143e-10 -9.47731e-11)
(1.5729e-10 -7.52029e-11 -3.09753e-11)
(-1.90136e-10 -6.32086e-11 3.8305e-10)
(1.26692e-11 1.7251e-12 -8.09121e-12)
(-2.09882e-11 -6.02307e-12 -8.99323e-12)
(-4.42368e-11 -4.42415e-12 -2.57988e-11)
(6.08356e-11 5.59756e-11 1.18195e-10)
(-6.2459e-11 -3.05894e-10 2.30628e-10)
(6.04987e-11 9.48488e-11 1.47469e-10)
(-2.02423e-11 -4.23572e-11 1.18373e-10)
(-9.71181e-10 -2.32693e-09 6.13833e-11)
(4.61792e-11 2.46962e-11 7.2741e-11)
(7.30486e-11 1.03962e-10 2.90052e-10)
(1.62641e-11 9.71837e-11 2.85551e-10)
(6.74597e-11 -3.009e-11 -5.08796e-11)
(1.69176e-11 -2.34568e-12 -1.05988e-11)
(5.37534e-12 5.11839e-13 -4.95517e-12)
(1.63708e-12 1.29844e-12 -2.2375e-12)
(-1.70755e-10 1.19043e-13 4.68875e-10)
(-1.54031e-10 3.73697e-11 4.42605e-10)
(-1.62131e-10 6.61163e-11 4.62614e-10)
(-2.18978e-12 4.99745e-13 1.37791e-12)
(-6.30447e-12 2.31672e-12 1.1392e-12)
(-8.66299e-12 2.35241e-12 9.01093e-13)
(-8.14558e-12 2.38538e-12 1.00277e-12)
(-1.19771e-10 9.5883e-12 3.69788e-10)
(-2.82956e-12 1.17064e-12 5.6153e-13)
(5.61792e-11 -6.96671e-12 4.08939e-11)
(-1.4512e-10 3.694e-11 4.07624e-10)
(6.29926e-11 -8.4867e-12 4.51729e-11)
(6.89144e-11 -1.15108e-11 5.06406e-11)
(-4.89728e-10 -1.01027e-11 -1.08282e-10)
(-5.59821e-11 2.68914e-11 2.30894e-10)
(-5.40709e-11 2.53946e-11 2.09922e-10)
(-5.97904e-12 -4.74963e-13 3.49446e-11)
(-1.21662e-10 -1.68831e-11 -3.96428e-11)
(-1.32485e-10 -2.97104e-12 -5.71726e-11)
(1.04174e-10 -1.13256e-11 -2.72406e-11)
(-8.5305e-11 2.11344e-11 -7.33183e-11)
(-2.50086e-10 1.93685e-11 2.44225e-10)
(-4.49964e-11 -5.46163e-12 -2.26065e-11)
(1.88256e-11 -6.38932e-12 1.60658e-11)
(-2.80685e-11 -1.38853e-11 -1.30682e-11)
(-1.73032e-11 -1.38149e-11 -4.71172e-12)
(5.90479e-11 6.23588e-11 1.15548e-10)
(5.81759e-11 7.38266e-11 1.22115e-10)
(-3.20284e-11 -1.31052e-10 1.87689e-10)
(-9.18107e-11 -1.6287e-10 2.16833e-10)
(-2.87514e-11 -9.95681e-11 2.69284e-11)
(-6.25446e-11 -3.45984e-10 3.8288e-11)
(-4.72555e-11 -1.37652e-10 1.50408e-11)
(-1.326e-10 -5.82274e-10 2.59383e-10)
(-1.73374e-11 -8.78865e-12 -5.32077e-12)
(-1.22694e-11 -8.76031e-12 -3.09039e-12)
(4.68445e-11 4.3665e-11 1.08338e-10)
(4.23117e-11 6.59381e-11 1.48559e-10)
(4.51805e-11 9.83405e-12 8.22996e-11)
(1.04863e-10 -2.25398e-11 4.14744e-10)
(8.08575e-11 8.10104e-11 3.38299e-10)
(5.55094e-11 8.31568e-11 2.1953e-10)
(3.52087e-11 4.07423e-11 1.35369e-10)
(4.83207e-11 2.94063e-11 8.14012e-11)
(4.26328e-11 7.58143e-11 1.36541e-10)
(2.14311e-10 6.41151e-11 3.40197e-10)
(1.4736e-10 9.12247e-11 3.6711e-10)
(3.62698e-11 9.68477e-11 2.37166e-10)
(4.62235e-11 5.17636e-11 9.76335e-11)
(2.06801e-10 8.91796e-11 3.53158e-10)
(1.68686e-11 1.05869e-10 1.98723e-10)
(4.48689e-11 -2.58952e-13 7.476e-11)
(1.75045e-10 -4.77304e-11 2.92245e-10)
(1.9168e-10 7.82509e-11 3.27217e-10)
(9.67613e-11 7.33295e-11 3.07651e-10)
(3.89103e-11 -1.92757e-12 1.03281e-10)
(4.09476e-11 8.57316e-12 5.98912e-11)
(4.35826e-11 2.39691e-11 6.77241e-11)
(1.91079e-10 7.38809e-11 2.92692e-10)
(7.26367e-12 1.07998e-10 1.65136e-10)
(3.55728e-11 -1.7967e-12 1.14789e-10)
(2.10921e-10 -6.75304e-12 3.64819e-10)
(2.96657e-11 8.88905e-11 2.69251e-10)
(3.11468e-11 4.06392e-14 1.14777e-10)
(3.5742e-11 -3.59858e-12 6.50062e-11)
(1.98923e-10 -3.94082e-11 3.1276e-10)
(4.27899e-11 1.70181e-11 6.40627e-11)
(1.5984e-10 2.40808e-11 2.24284e-10)
(1.35423e-11 9.82939e-11 1.39257e-10)
(4.51939e-11 6.30327e-11 3.10413e-10)
(-1.94169e-11 7.38237e-11 2.4967e-10)
(-3.35207e-11 1.00987e-10 2.04577e-10)
(2.66697e-11 9.4515e-11 2.74436e-10)
(2.99155e-11 1.86771e-12 1.27194e-10)
(4.92458e-11 3.67466e-11 8.72401e-11)
(2.0508e-10 7.34402e-11 2.76669e-10)
(4.80763e-11 4.76537e-11 3.06165e-10)
(-2.14588e-11 9.44513e-11 1.59406e-10)
(-5.71957e-12 7.47303e-11 2.17569e-10)
(2.50617e-11 5.59434e-12 1.28006e-10)
(1.05665e-10 8.85636e-11 3.25889e-10)
(3.81637e-11 -3.99239e-12 6.69735e-11)
(2.14399e-10 -2.10084e-12 3.76549e-10)
(2.27119e-10 -5.46439e-11 3.62024e-10)
(1.86811e-10 2.81349e-11 2.63521e-10)
(5.69839e-11 6.17792e-11 1.21941e-10)
(2.30946e-10 7.6526e-11 2.99673e-10)
(5.7137e-11 2.68857e-11 3.09452e-10)
(-1.34144e-11 7.90006e-11 2.1397e-10)
(2.98712e-11 1.0127e-11 1.39194e-10)
(3.80191e-11 3.59903e-12 1.17115e-10)
(4.89926e-11 -5.58275e-12 7.49745e-11)
(7.29859e-11 2.70069e-11 1.12564e-10)
(7.99862e-11 3.54707e-11 3.93942e-10)
(-9.1949e-12 8.10016e-11 1.25916e-10)
(-1.8845e-11 5.24297e-11 1.68816e-10)
(-5.27269e-12 3.41693e-11 1.59554e-10)
(1.33144e-11 2.30478e-11 1.49828e-10)
(3.05317e-11 1.49442e-11 1.42866e-10)
(4.46478e-11 8.3315e-12 1.28571e-10)
(2.85799e-10 -4.72815e-11 7.71554e-10)
(1.00485e-10 5.73121e-11 1.69832e-10)
(8.71207e-11 -1.8851e-10 -1.40672e-10)
(1.98642e-11 7.6224e-11 1.29837e-10)
(-4.58279e-12 3.45458e-11 1.46166e-10)
(1.48542e-11 2.48242e-11 1.45179e-10)
(3.74779e-11 1.75889e-11 1.40661e-10)
(5.0669e-11 1.24608e-11 1.35469e-10)
(-5.179e-12 1.19006e-10 2.05378e-10)
(6.53541e-11 -2.02339e-12 1.08359e-10)
(1.00345e-10 3.58377e-12 1.3637e-10)
(4.82442e-10 -1.87254e-10 -1.1554e-10)
(2.10033e-10 6.2296e-11 2.41293e-10)
(4.36566e-10 -1.78157e-10 -8.72886e-11)
(3.91287e-10 -1.63691e-10 -8.4368e-11)
(3.61195e-10 -1.74682e-10 -1.37398e-10)
(-3.30728e-11 1.8852e-12 9.72838e-12)
(-2.11024e-11 1.75497e-11 4.29622e-11)
(2.07827e-11 2.45776e-11 1.27474e-10)
(4.17796e-11 1.95372e-11 1.34876e-10)
(3.56429e-10 -1.62539e-10 -7.42454e-11)
(8.54986e-11 5.79547e-11 1.50579e-10)
(1.9579e-10 -1.80877e-10 -2.0026e-10)
(1.24893e-10 -1.60647e-10 -2.14654e-10)
(6.44691e-11 -1.31571e-10 -2.02086e-10)
(2.04413e-11 -8.25888e-11 -1.5124e-10)
(3.82966e-13 -4.04513e-11 -9.07662e-11)
(-6.34568e-12 -1.11126e-11 -2.82878e-11)
(-4.97962e-12 4.72374e-12 2.12963e-11)
(7.01781e-12 1.87043e-11 4.7564e-11)
(-2.30846e-11 5.60518e-11 7.59066e-11)
(1.13318e-10 4.56475e-13 1.42234e-10)
(2.11556e-10 6.60705e-11 2.2178e-10)
(1.30869e-10 4.51261e-11 1.68745e-10)
(9.21353e-12 4.96966e-12 2.54546e-11)
(1.62333e-10 1.99134e-11 1.51094e-10)
(3.1962e-10 -5.66503e-11 -2.87945e-10)
(3.37156e-10 -8.12694e-11 -1.52107e-10)
(2.01687e-10 4.91817e-11 2.11002e-10)
(4.66717e-11 5.50381e-12 6.35387e-11)
(1.76552e-10 -9.10991e-11 -8.45665e-11)
(2.83718e-11 -4.97635e-12 1.68307e-11)
(1.3219e-10 1.07703e-11 1.33348e-10)
(1.23207e-10 -3.48852e-11 -2.34896e-10)
(1.80077e-10 3.88296e-11 1.64559e-10)
(2.04729e-10 4.78579e-11 1.94389e-10)
(7.36187e-11 5.04482e-12 8.33364e-11)
(1.35553e-10 -7.5992e-11 -1.09558e-10)
(1.1657e-10 -6.88276e-11 -1.22823e-10)
(9.25728e-11 -5.87775e-11 -1.30321e-10)
(1.48067e-10 1.74158e-11 1.40883e-10)
(1.08249e-10 -3.66317e-11 -1.74877e-10)
(1.90891e-10 -2.87589e-11 -1.46996e-10)
(9.78714e-11 3.00883e-12 9.81471e-11)
(7.40517e-11 -3.67283e-11 -9.92158e-11)
(5.98799e-11 -2.66224e-11 -9.42588e-11)
(7.01564e-11 -1.48966e-11 2.24596e-11)
(7.95468e-11 -3.06087e-11 -1.21149e-10)
(1.67533e-10 2.76103e-11 1.46031e-10)
(1.41774e-10 -3.00851e-11 -7.80692e-11)
(1.84152e-10 8.59496e-12 1.71369e-10)
(1.00195e-10 1.19094e-13 9.43125e-11)
(1.22971e-10 1.80998e-12 1.13724e-10)
(5.12996e-11 -1.41769e-11 -7.29425e-11)
(9.07324e-11 -9.96838e-12 5.25826e-11)
(1.66871e-10 2.13596e-11 1.36171e-10)
(4.69525e-11 -3.29424e-11 -6.71028e-11)
(1.01832e-10 -2.83424e-11 -6.53912e-11)
(2.08519e-10 4.21847e-12 1.85119e-10)
(4.04307e-11 -5.85249e-12 -1.45149e-12)
(7.20116e-11 2.99581e-12 3.0593e-11)
(1.13288e-10 -3.84911e-13 1.00883e-10)
(4.12302e-11 -5.54086e-12 -5.2964e-11)
(1.09821e-10 -9.16687e-12 6.91205e-11)
(1.82986e-10 2.12503e-11 1.51291e-10)
(3.76951e-11 -2.40488e-11 -2.97484e-11)
(6.65113e-11 -2.00748e-11 -4.17487e-12)
(7.55717e-11 -2.83233e-11 -5.5128e-11)
(6.37591e-11 -2.69427e-11 -5.98883e-11)
(2.36508e-10 4.13521e-11 2.20882e-10)
(2.20031e-10 1.25659e-12 1.90586e-10)
(2.33634e-11 -9.79678e-13 -1.23896e-11)
(5.97737e-11 -1.03373e-11 1.11854e-11)
(7.08743e-11 2.67097e-12 3.49172e-11)
(7.30363e-11 -3.2514e-13 4.64554e-11)
(1.24011e-10 -2.1446e-12 1.05752e-10)
(1.2257e-10 -9.17978e-12 7.93954e-11)
(8.13987e-11 -2.24567e-11 3.29541e-11)
(4.52133e-11 -2.37792e-11 -4.12879e-11)
(3.83537e-11 -2.35779e-11 -4.02716e-11)
(2.04751e-10 4.34515e-11 1.77572e-10)
(2.50399e-10 4.52825e-11 2.29685e-10)
(2.38245e-10 -1.90904e-12 2.02897e-10)
(1.72226e-11 1.64301e-12 -1.47381e-11)
(2.23953e-11 -3.76124e-12 -2.80167e-12)
(7.07561e-11 -6.42858e-13 4.67231e-11)
(7.80041e-11 -1.32781e-12 5.76151e-11)
(1.40092e-10 -3.52836e-12 1.1242e-10)
(2.60461e-11 1.13636e-12 -3.06833e-11)
(1.38342e-10 -1.16681e-11 8.60435e-11)
(2.09137e-10 2.17854e-11 1.55479e-10)
(8.34358e-11 -1.48347e-11 4.54896e-11)
(2.01511e-10 3.52518e-11 1.61081e-10)
(1.49726e-11 -1.56351e-11 -1.96389e-11)
(1.37071e-11 -1.17623e-11 -1.35026e-11)
(2.2064e-10 4.53206e-11 1.89426e-10)
(-2.64723e-10 -7.63524e-11 5.12188e-10)
(-2.57376e-10 -7.8659e-11 4.77693e-10)
(2.6597e-10 1.72911e-11 2.37898e-10)
(9.81933e-12 3.31578e-12 -1.22208e-11)
(7.43724e-11 -2.37638e-12 5.73121e-11)
(8.84351e-11 -2.02025e-12 6.95119e-11)
(9.9508e-11 -1.96163e-12 7.7761e-11)
(1.59353e-10 -6.02034e-12 1.22989e-10)
(1.59687e-11 1.79046e-12 -1.9575e-11)
(1.47041e-10 -1.32995e-11 8.88905e-11)
(2.08012e-10 2.2394e-11 1.51413e-10)
(2.26415e-10 4.19058e-11 1.82902e-10)
(-2.48748e-10 -7.4005e-11 4.8847e-10)
(2.49485e-10 4.98203e-11 2.2023e-10)
(2.80899e-10 1.8691e-11 2.48771e-10)
(-2.22854e-10 -4.63027e-11 3.90489e-10)
(2.86626e-12 3.71296e-12 -7.03194e-12)
(8.31791e-11 -3.05362e-12 6.63641e-11)
(9.42876e-11 -2.32648e-12 7.39811e-11)
(1.15302e-10 -1.16016e-12 8.89118e-11)
(1.5993e-10 -3.76638e-12 1.17231e-10)
(1.75864e-10 -7.006e-12 1.28455e-10)
(-2.10803e-10 -8.37971e-12 4.61957e-10)
(8.3794e-12 1.93063e-12 -8.22959e-12)
(1.56962e-10 -1.58311e-11 9.15483e-11)
(2.36208e-10 2.93826e-11 1.65001e-10)
(-1.59776e-10 -6.48394e-11 4.23459e-10)
(-2.15654e-12 -3.0615e-12 -2.94733e-12)
(-2.51289e-12 -9.32295e-13 -7.70266e-13)
(1.08998e-12 2.50053e-12 2.72294e-12)
(2.05196e-11 5.90873e-12 1.04582e-11)
(2.49503e-10 5.00896e-11 2.22175e-10)
(-2.23001e-10 -8.32281e-11 4.37324e-10)
(-2.29527e-10 -7.55404e-11 4.14749e-10)
(2.83162e-10 1.398e-11 2.46135e-10)
(-9.54783e-13 -1.2889e-12 1.99843e-12)
(5.4464e-11 -2.86712e-12 3.67092e-11)
(-1.95506e-10 -1.47484e-11 3.59033e-10)
(-1.46008e-12 3.96961e-12 -3.34163e-12)
(1.06337e-10 -1.83854e-12 8.26701e-11)
(1.2118e-10 -7.56909e-13 9.03537e-11)
(1.64038e-10 -4.34406e-12 1.14916e-10)
(1.81323e-10 -9.04257e-12 1.28191e-10)
(-2.09465e-10 8.94877e-12 4.51508e-10)
(-2.09493e-10 9.80275e-12 4.68979e-10)
(-2.32555e-10 1.73478e-11 5.12922e-10)
(-2.71178e-10 -2.06932e-12 4.73004e-10)
(1.6971e-10 -1.91486e-11 9.17849e-11)
(2.37404e-10 2.60678e-11 1.63985e-10)
(-1.82119e-10 -6.76105e-11 4.13024e-10)
(-1.46524e-10 -3.41016e-11 5.40389e-10)
(8.25552e-13 -2.22013e-12 -1.89522e-12)
(-2.59739e-12 -1.14194e-12 -7.32889e-13)
(-5.38755e-12 -2.81065e-13 -7.4403e-14)
(-7.44288e-12 5.56964e-13 3.71212e-13)
(-8.25289e-12 1.4809e-12 7.18917e-13)
(-6.88002e-12 2.39333e-12 1.04977e-12)
(3.11693e-12 3.69918e-12 1.95503e-12)
(-3.32e-12 2.75469e-13 4.4871e-13)
(3.84287e-11 -7.24526e-12 1.16293e-11)
(2.96069e-10 1.31148e-11 2.5785e-10)
(5.7707e-11 -4.824e-12 4.42465e-11)
(1.14547e-10 -1.67668e-12 8.67898e-11)
(1.3376e-10 5.29763e-13 9.6409e-11)
(1.73658e-10 -5.64438e-12 1.20337e-10)
(1.96039e-10 -9.66132e-12 1.34013e-10)
(-1.95247e-10 1.46724e-11 4.34731e-10)
(-2.06448e-10 2.43558e-11 4.81566e-10)
(-2.4134e-10 2.82641e-11 5.42473e-10)
(-2.84048e-10 2.66321e-11 5.49081e-10)
(-2.9119e-10 1.86561e-11 6.64527e-10)
(-3.33703e-10 -4.39157e-11 5.319e-10)
(-1.26583e-10 -2.79884e-11 5.05607e-10)
(-2.11687e-10 -6.44325e-11 3.99651e-10)
(-2.0899e-10 3.94638e-11 6.0515e-10)
(-1.9936e-10 -5.81573e-11 3.381e-10)
(2.99573e-10 1.04055e-11 2.57991e-10)
(-2.06766e-12 1.68779e-12 2.97309e-13)
(6.30297e-11 -6.53166e-12 5.0761e-11)
(-1.74952e-10 -1.17735e-11 3.2204e-10)
(-2.37362e-10 8.69495e-11 5.32499e-10)
(1.25808e-10 5.52611e-13 8.9742e-11)
(1.41946e-10 9.68795e-13 9.98695e-11)
(1.83192e-10 -6.10608e-12 1.22748e-10)
(2.08606e-10 -1.34908e-11 1.37017e-10)
(-1.81323e-10 1.32568e-11 3.88787e-10)
(-1.91284e-10 2.43717e-11 4.42504e-10)
(-2.46584e-10 4.42746e-11 5.54673e-10)
(-2.551e-10 3.94476e-11 5.79539e-10)
(-2.23564e-10 2.65655e-11 5.77455e-10)
(-1.50301e-10 -5.80114e-11 3.43627e-10)
(-1.09709e-10 -1.20865e-11 4.56795e-10)
(-1.51182e-10 3.91656e-11 5.13826e-10)
(-1.95484e-10 -6.85511e-11 3.63173e-10)
(3.94121e-11 -3.44408e-12 2.82603e-11)
(4.65685e-11 -5.23287e-12 3.41143e-11)
(3.09509e-10 6.81066e-12 2.64503e-10)
(7.64314e-11 -6.07138e-12 6.25623e-11)
(1.38027e-10 9.40697e-13 9.62578e-11)
(1.56495e-10 3.14994e-12 1.03399e-10)
(1.98636e-10 -8.54747e-12 1.24919e-10)
(2.28207e-10 -1.57289e-11 1.41511e-10)
(-1.69654e-10 1.78482e-11 3.92042e-10)
(-2.25845e-10 4.47905e-11 5.3651e-10)
(-2.20846e-10 4.75065e-11 5.43719e-10)
(1.75937e-10 -2.90644e-11 8.54752e-11)
(-1.65914e-10 -5.0204e-11 3.28578e-10)
(-1.00501e-10 1.4322e-12 4.29117e-10)
(-1.81052e-10 -5.98189e-11 3.41322e-10)
(5.29268e-11 -6.33782e-12 3.90282e-11)
(3.04172e-10 3.88181e-12 2.56787e-10)
(8.29612e-11 -7.27181e-12 6.60994e-11)
(-1.48761e-10 -9.22763e-12 2.78018e-10)
(1.48637e-10 4.07632e-12 9.94003e-11)
(1.63708e-10 4.43905e-12 1.03888e-10)
(1.77901e-10 3.41426e-12 1.07779e-10)
(2.12188e-10 -9.51763e-12 1.23684e-10)
(2.39938e-10 -2.00336e-11 1.37724e-10)
(-1.57911e-10 1.55701e-11 3.44074e-10)
(-1.98621e-10 4.79622e-11 5.05789e-10)
(-2.05305e-10 5.08549e-11 5.25991e-10)
(1.8368e-10 -3.35205e-11 8.48022e-11)
(-1.72794e-10 -4.43802e-11 3.15385e-10)
(-9.05735e-11 1.54178e-11 4.12654e-10)
(-1.81948e-10 -5.05164e-11 3.23854e-10)
(-1.75742e-10 4.85115e-11 5.24198e-10)
(2.96338e-10 -1.15413e-12 2.50196e-10)
(-1.52172e-10 -2.84592e-11 2.49114e-10)
(-1.90401e-10 3.32721e-11 5.25282e-10)
(8.97732e-11 -5.74408e-12 7.11757e-11)
(-1.79895e-10 3.3222e-11 4.94053e-10)
(1.78621e-10 6.65566e-12 1.07364e-10)
(1.91188e-10 5.60837e-12 1.09993e-10)
(2.29852e-10 -1.18671e-11 1.25886e-10)
(2.61598e-10 -2.18687e-11 1.43827e-10)
(-1.43969e-10 2.32689e-11 3.40726e-10)
(-1.80886e-10 4.52289e-11 4.70887e-10)
(-1.92332e-10 4.77704e-11 5.01488e-10)
(1.90147e-10 -3.70441e-11 8.28045e-11)
(2.86899e-10 4.50492e-11 1.74009e-10)
(8.45939e-11 -1.20103e-11 5.72335e-11)
(-1.16093e-10 6.47124e-11 4.62247e-10)
(6.40121e-11 -7.86858e-12 4.57292e-11)
(-1.80305e-10 6.06625e-11 5.14916e-10)
(6.88173e-11 -8.05196e-12 5.43189e-11)
(2.7061e-10 -3.95581e-12 2.3115e-10)
(3.02651e-10 -3.63909e-11 2.13491e-10)
(1.83927e-10 9.87081e-12 1.03615e-10)
(2.02308e-10 6.6433e-12 1.09373e-10)
(2.45447e-10 -1.1819e-11 1.23921e-10)
(2.65911e-10 -2.42799e-11 1.36019e-10)
(-1.32669e-10 1.80608e-11 2.98025e-10)
(-1.81081e-10 4.92839e-11 4.75211e-10)
(1.98566e-10 -4.22999e-11 8.24491e-11)
(2.7224e-10 4.71822e-11 1.59598e-10)
(-8.10957e-11 -3.43318e-11 2.36413e-10)
(1.32435e-10 -2.67628e-11 7.19929e-11)
(-1.52009e-10 -3.30846e-11 2.5963e-10)
(8.77475e-11 -1.36135e-11 5.82248e-11)
(6.9348e-11 -9.3876e-12 4.94001e-11)
(6.42243e-11 -9.86931e-12 4.79524e-11)
(-1.41166e-10 -3.9544e-11 2.33604e-10)
(-1.34491e-10 -2.21711e-11 2.18346e-10)
(1.1641e-10 -2.39264e-12 8.59568e-11)
(2.79674e-10 -3.66464e-11 1.99474e-10)
(2.00075e-10 1.29202e-11 1.08171e-10)
(2.13019e-10 1.08322e-11 1.07592e-10)
(2.53151e-10 -1.32209e-11 1.1882e-10)
(2.75011e-10 -2.36109e-11 1.36133e-10)
(-1.26102e-10 2.12296e-11 2.94081e-10)
(2.4011e-10 5.10059e-11 1.34174e-10)
(-9.46198e-11 -3.24767e-11 2.10853e-10)
(-8.14679e-11 -3.13433e-11 2.11441e-10)
(-7.42893e-11 -2.79409e-11 2.07509e-10)
(1.34958e-10 -2.9819e-11 7.07304e-11)
(-1.53892e-10 -2.68031e-11 2.45031e-10)
(-5.60954e-11 2.87103e-11 3.0878e-10)
(9.46759e-11 -1.77336e-11 6.16074e-11)
(1.75368e-10 5.07281e-11 1.63514e-10)
(-1.52401e-10 -3.95897e-11 2.60533e-10)
(-1.4346e-10 -4.43285e-11 2.42992e-10)
(-1.2672e-10 1.16966e-10 4.71821e-10)
(1.40818e-10 3.82654e-12 1.56392e-10)
(-1.8362e-10 6.92217e-11 4.69818e-10)
(1.25643e-10 1.50709e-12 9.10965e-11)
(2.227e-10 -3.26598e-11 1.70472e-10)
(2.04153e-10 1.63851e-11 1.04094e-10)
(2.25631e-10 1.28953e-11 1.06622e-10)
(2.65732e-10 -1.31365e-11 1.16979e-10)
(2.799e-10 -2.54662e-11 1.33378e-10)
(-1.17959e-10 2.05292e-11 2.68443e-10)
(2.64805e-10 -1.42746e-11 9.16086e-11)
(2.50714e-10 2.5848e-12 9.85674e-11)
(2.06128e-10 4.94761e-11 1.27311e-10)
(-9.69829e-11 -2.57097e-11 1.83902e-10)
(-7.54845e-11 -2.78503e-11 1.81102e-10)
(-7.40427e-11 -2.56032e-11 1.78776e-10)
(-6.81678e-11 -2.2586e-11 1.77815e-10)
(1.38344e-10 -3.39524e-11 6.97571e-11)
(-1.54281e-10 -1.86846e-11 2.29888e-10)
(1.95092e-10 4.77882e-11 2.01975e-10)
(-5.57868e-11 9.94598e-11 3.73833e-10)
(-1.28968e-10 -3.3492e-11 2.08887e-10)
(-1.64216e-10 1.10671e-10 4.78427e-10)
(9.39638e-11 -9.90648e-12 7.76009e-11)
(1.78921e-10 3.0599e-12 2.13233e-10)
(-1.26852e-10 -2.51162e-11 2.00508e-10)
(1.30436e-10 6.63544e-13 9.40715e-11)
(1.89641e-10 -2.26451e-11 1.87629e-10)
(-1.82804e-10 5.77853e-11 4.55905e-10)
(2.20427e-10 2.21313e-11 1.07797e-10)
(2.36496e-10 1.75233e-11 1.05479e-10)
(2.74578e-10 -1.14492e-11 1.1807e-10)
(2.77455e-10 -2.34825e-11 1.36859e-10)
(-1.43357e-10 4.04994e-11 4.22561e-10)
(2.66441e-10 -1.67255e-11 9.26456e-11)
(2.45867e-10 1.40521e-12 9.69978e-11)
(1.98137e-10 4.06611e-11 1.45232e-10)
(-1.09673e-10 -1.62431e-11 1.61569e-10)
(-7.78522e-11 -2.27377e-11 1.55488e-10)
(-6.21059e-11 -1.7247e-11 1.51629e-10)
(1.47136e-10 -3.80602e-11 7.51398e-11)
(1.99446e-10 3.8305e-11 2.29874e-10)
(8.14182e-11 -1.95757e-11 6.71645e-11)
(1.90619e-10 2.59149e-11 2.30391e-10)
(2.30814e-10 2.49183e-11 1.08986e-10)
(2.54147e-10 2.17594e-11 1.16841e-10)
(2.62816e-10 -1.93539e-11 1.54526e-10)
(-9.96314e-11 1.88548e-11 2.30129e-10)
(-1.3308e-10 3.62797e-11 4.2541e-10)
(2.67399e-10 -1.54471e-11 9.99994e-11)
(2.3969e-10 2.07446e-12 1.14845e-10)
(1.97506e-10 3.37136e-11 1.56959e-10)
(-1.15344e-10 -6.55313e-12 1.40966e-10)
(-5.31409e-11 -1.34762e-11 1.2989e-10)
(1.51594e-10 -4.32841e-11 7.51179e-11)
(1.96353e-10 4.21192e-11 1.86338e-10)
(-5.07847e-12 4.4709e-11 1.90181e-10)
(-1.53403e-10 -1.78192e-11 2.24433e-10)
(9.08794e-11 -2.78689e-11 6.64363e-11)
(-1.47316e-10 -2.3903e-11 2.28941e-10)
(-5.28857e-11 2.28817e-10 4.13157e-10)
(1.64266e-10 1.57241e-11 1.07068e-10)
(2.51579e-10 2.92677e-11 1.2866e-10)
(2.77144e-10 2.34824e-11 1.46759e-10)
(2.43435e-10 -8.73178e-12 1.97935e-10)
(-1.27243e-10 3.01746e-11 4.30181e-10)
(2.6314e-10 -2.07089e-11 1.25878e-10)
(2.20062e-10 -6.88776e-12 1.24272e-10)
(1.949e-10 7.41999e-12 1.3158e-10)
(1.82244e-10 3.11465e-11 1.51543e-10)
(-1.31525e-10 5.2581e-12 1.22833e-10)
(-2.84542e-11 -2.48742e-12 1.2074e-10)
(1.89498e-10 4.22457e-11 1.80825e-10)
(-1.53728e-10 5.47179e-12 1.73908e-10)
(8.71018e-11 1.48177e-10 2.28345e-10)
(-1.58495e-10 -2.19235e-11 2.36431e-10)
(-1.51677e-10 2.86693e-10 5.41014e-10)
(1.20426e-10 -1.08296e-11 1.04559e-10)
(-2.47607e-10 1.78608e-10 6.47528e-10)
(1.90968e-10 1.94148e-11 1.31034e-10)
(-1.38119e-10 -8.71635e-12 2.18968e-10)
(3.00475e-10 3.31293e-11 2.00996e-10)
(3.01932e-10 3.88782e-11 2.15796e-10)
(2.39669e-10 -1.17387e-12 2.27616e-10)
(-1.08727e-10 1.41657e-11 2.27261e-10)
(-1.09574e-10 1.30714e-11 4.45857e-10)
(2.64342e-10 -4.45672e-11 1.19294e-10)
(2.29422e-10 -2.23604e-11 1.16455e-10)
(1.88417e-10 -7.57997e-12 1.16215e-10)
(1.66918e-10 6.20939e-12 1.12846e-10)
(1.64913e-10 3.09165e-11 1.36592e-10)
(1.75589e-10 -7.81956e-12 2.53847e-10)
(-1.86594e-10 1.03845e-11 1.82363e-10)
(1.42899e-10 -5.62415e-11 8.24786e-11)
(1.78181e-10 3.45785e-10 -6.38997e-11)
(-3.09529e-10 2.72076e-10 -9.77009e-11)
(1.03055e-10 -3.49115e-11 9.672e-11)