/*--------------------------------*- C++ -*----------------------------------*\
  =========                 |
  \\      /  F ield         | OpenFOAM: The Open Source CFD Toolbox
   \\    /   O peration     | Website:  https://openfoam.org
    \\  /    A nd           | Version:  7
     \\/     M anipulation  |
\*---------------------------------------------------------------------------*/
FoamFile
{
    version     2.0;
    format      ascii;
    class       volScalarField;
    location    "4.5";
    object      p;
}
// * * * * * * * * * * * * * * * * * * * * * * * * * * * * * * * * * * * * * //

dimensions      [0 2 -2 0 0 0 0];

internalField   nonuniform List<scalar> 
382612
(
0.0021325
0.00195539
0.00204253
0.00204831
0.00182972
0.00228878
0.0021677
0.00202695
0.00184738
0.00176521
0.00189924
0.00188623
0.00189052
0.00192933
0.00198057
0.00213128
0.00194932
0.00209059
0.00206966
0.00209504
0.00212011
0.00215323
0.00218644
0.00223495
0.00221142
0.00218307
0.00215768
0.00265627
0.00270895
0.00275277
0.00278905
0.00257387
0.00256446
0.0025526
0.00253293
0.00242901
0.0020646
0.00211205
0.00218906
0.00222876
0.00226342
0.00229474
0.00223733
0.00221687
0.00219047
0.00215903
0.00207225
0.00208974
0.00211485
0.00213592
0.0022767
0.00225255
0.00222498
0.00219594
0.00215064
0.00202844
0.00205449
0.00210144
0.00217695
0.00209475
0.0021813
0.00212189
0.00215014
0.00269021
0.00217108
0.00197449
0.00230706
0.00249843
0.00260311
0.00276713
0.00278975
0.00279405
0.00279666
0.00301352
0.00300177
0.00298595
0.00295631
0.00283248
0.00258364
0.00271262
0.00276262
0.00279542
0.00281841
0.00318353
0.00318977
0.00319541
0.00316811
0.00296139
0.00226837
0.00243302
0.00247465
0.0024954
0.00250923
0.0026867
0.00270061
0.00271669
0.00270565
0.00257074
0.00210089
0.00214061
0.00218654
0.00220881
0.00223259
0.0022594
0.00214043
0.00212933
0.00211699
0.00211086
0.00192793
0.00196159
0.0019891
0.00200999
0.0022535
0.0022243
0.00219318
0.00216308
0.00211224
0.00180528
0.00188152
0.00191862
0.00194083
0.00195589
0.0021256
0.00209462
0.00206296
0.00203087
0.00194646
0.00170263
0.00186739
0.0020516
0.00208495
0.00209967
0.0021065
0.00232523
0.0023322
0.00234204
0.00234781
0.00243328
0.00240199
0.00230318
0.00227704
0.00225834
0.00224482
0.00191233
0.00189907
0.00188306
0.00186777
0.00202399
0.00204844
0.00206753
0.00208161
0.0020902
0.00207729
0.00206215
0.0020503
0.00208495
0.0019965
0.00193529
0.00193722
0.00194774
0.00195644
0.00187991
0.00203116
0.00205444
0.00174404
0.00184273
0.00183237
0.00214161
0.0023651
0.00174254
0.00177451
0.00208866
0.0017461
0.00180811
0.00178485
0.00174237
0.00174456
0.00175497
0.00176076
0.00233743
0.00234952
0.00236835
0.00238579
0.00234554
0.00186751
0.00184384
0.00183869
0.00184222
0.00184671
0.00225621
0.00227418
0.00230206
0.00233195
0.00234426
0.00200097
0.00216019
0.00218075
0.00218182
0.00217803
0.00217621
0.00193069
0.00193179
0.00193543
0.00194792
0.00156397
0.00157276
0.00158373
0.00158855
0.00201505
0.00201154
0.00200661
0.00200418
0.00203818
0.00157527
0.00156609
0.00202482
0.00192624
0.00154755
0.00178339
0.00198066
0.00165951
0.0019643
0.00194115
0.00166861
0.00149466
0.00184899
0.00191674
0.00178334
0.00157242
0.00180066
0.00194299
0.00199981
0.00203891
0.00198739
0.00185877
0.00175013
0.00204634
0.00194149
0.00201022
0.00208248
0.00202029
0.00202763
0.00215222
0.00217025
0.00196682
0.00196628
0.00201286
0.0020262
0.00204412
0.00206365
0.00226662
0.00226165
0.00224974
0.00220463
0.00251234
0.00248891
0.00247011
0.00245239
0.0029513
0.00293909
0.00292697
0.00289684
0.00273583
0.00260167
0.00252202
0.00254648
0.0025645
0.00257059
0.0025784
0.00221304
0.00221385
0.0022066
0.00219003
0.00220199
0.00272975
0.0027002
0.00270787
0.00271993
0.0027299
0.0025716
0.00255594
0.00253121
0.00251118
0.00252946
0.00281402
0.00277659
0.00277788
0.00279362
0.00280662
0.00305487
0.0030542
0.00305209
0.00303842
0.00294921
0.00285136
0.00299908
0.00303592
0.00305252
0.00306231
0.00353451
0.00353968
0.00354571
0.00351816
0.00329007
0.00244768
0.00249777
0.00251782
0.00254327
0.00256451
0.00262377
0.0026133
0.00259904
0.00257023
0.00243671
0.00219509
0.00229874
0.0023403
0.00237055
0.00239102
0.00276439
0.00278033
0.00280482
0.00280761
0.0026707
0.00184542
0.00187136
0.00188406
0.0019069
0.00192813
0.00210337
0.00213317
0.00215172
0.00216833
0.00217953
0.00201497
0.00199487
0.00196929
0.00195066
0.00191374
0.00249976
0.00255092
0.00253641
0.00250803
0.0024868
0.00180024
0.00178689
0.00177036
0.0017645
0.0017783
0.0023658
0.00233474
0.00230381
0.00227443
0.00225485
0.00166596
0.00166208
0.00165759
0.00166991
0.00175577
0.00186902
0.00181283
0.00180794
0.00181739
0.00182634
0.00213836
0.00215615
0.00218173
0.00221323
0.00227005
0.00180812
0.00171413
0.00170254
0.00170895
0.0017144
0.00214042
0.00215392
0.00217363
0.00219497
0.0022019
0.00196121
0.00204733
0.00205361
0.00205543
0.00205228
0.00204919
0.00191014
0.00191035
0.00191124
0.00191802
0.00171092
0.00170985
0.00171241
0.00171324
0.00197117
0.00197347
0.00197488
0.00197602
0.00198561
0.00172663
0.00195804
0.00189955
0.0018883
0.00188728
0.00188633
0.00180299
0.00194647
0.00210878
0.00204719
0.0020256
0.0020138
0.00200581
0.00189954
0.00190163
0.00190328
0.0019022
0.00202291
0.00201935
0.0020141
0.00200986
0.00202887
0.00203142
0.00203475
0.00203697
0.0019473
0.00195036
0.00195257
0.0019529
0.00209201
0.00209857
0.00210655
0.00211591
0.00215102
0.00195579
0.0020425
0.00208275
0.00207351
0.00181472
0.00198662
0.00197119
0.00176668
0.00168495
0.00194442
0.00194813
0.00168729
0.0021178
0.00212134
0.00207194
0.0020443
0.00190137
0.00202703
0.00192299
0.00198049
0.00196236
0.0020762
0.00212197
0.00207181
0.0020604
0.00205876
0.00205898
0.00208303
0.00208021
0.00207635
0.00207632
0.00209693
0.00222652
0.00221572
0.00220732
0.00220436
0.0022047
0.00217106
0.00217389
0.00217888
0.00218862
0.00221882
0.00206556
0.00205396
0.00205166
0.00205002
0.00204644
0.00204375
0.00205496
0.00205248
0.00204909
0.00204787
0.00195442
0.00195734
0.00195942
0.00196015
0.002005
0.00200763
0.00201079
0.00201326
0.00202111
0.00194957
0.00211768
0.00208653
0.00208147
0.00207825
0.00207513
0.00207269
0.00212181
0.00208476
0.00206253
0.00206494
0.00207063
0.00207429
0.00222179
0.0022216
0.00222
0.00221584
0.00221343
0.00228981
0.00229781
0.00229654
0.00229547
0.00229558
0.00221001
0.00220853
0.00220722
0.00221063
0.00223759
0.00221421
0.0022047
0.00220399
0.00220244
0.0022011
0.0020611
0.00205774
0.00205342
0.00205168
0.00205872
0.00205657
0.0020521
0.00204847
0.00206719
0.0020696
0.00207227
0.00207355
0.00208328
0.00208242
0.00208322
0.00208318
0.00225461
0.00224852
0.0022399
0.00223157
0.0022384
0.00209927
0.00207579
0.00208751
0.00215601
0.00208163
0.00206604
0.00205858
0.00202556
0.0018642
0.00199232
0.00204674
0.00198256
0.00216713
0.00210624
0.00208112
0.00213893
0.00206209
0.00205885
0.00218525
0.00217189
0.00225553
0.00223143
0.00219274
0.00217385
0.00217442
0.00217939
0.00218298
0.00230325
0.0022996
0.00229349
0.00228554
0.00228028
0.00233691
0.0023454
0.00234783
0.00234934
0.00235014
0.00228756
0.00228734
0.00228588
0.00228347
0.00229159
0.00237842
0.00238193
0.0023865
0.0023882
0.00238892
0.00235437
0.00234578
0.0023338
0.0023199
0.00230837
0.00219074
0.00219315
0.00219209
0.00218919
0.00218631
0.00229307
0.00228392
0.00227254
0.002258
0.00222794
0.00213707
0.0020938
0.00209885
0.00210269
0.00210258
0.00210171
0.00211545
0.00211206
0.00210796
0.0021101
0.00212982
0.00213212
0.00213447
0.00213608
0.00208128
0.0020827
0.00208436
0.00208496
0.00208446
0.00213011
0.00213559
0.00208721
0.00211063
0.00215285
0.00207535
0.0020606
0.00211325
0.00217155
0.00225562
0.00214837
0.00212447
0.00225077
0.00221502
0.00210632
0.00219373
0.00235843
0.00217713
0.00209255
0.00231311
0.00236942
0.00236954
0.00236015
0.00233492
0.00228676
0.00220864
0.00221623
0.00222308
0.00222645
0.00222825
0.00232558
0.002325
0.0023252
0.00232644
0.00232171
0.0024003
0.00241642
0.00242058
0.00242272
0.00242424
0.00238906
0.00238416
0.00237672
0.00236655
0.00235901
0.00241683
0.00244283
0.00245214
0.00245575
0.00245767
0.00250105
0.00249721
0.00249326
0.00248803
0.00246539
0.00243246
0.00244183
0.00245181
0.00246188
0.00246922
0.00251587
0.00251329
0.0025092
0.00249844
0.00246637
0.00237986
0.00239673
0.00240613
0.0024129
0.00241735
0.00225867
0.0022535
0.00224668
0.00223734
0.0022162
0.00213145
0.0021052
0.00211852
0.00212384
0.00212468
0.0021235
0.00215333
0.00214864
0.00214231
0.00213648
0.00216496
0.00217084
0.002178
0.00218581
0.00212831
0.00212516
0.00211914
0.00210856
0.00209188
0.00215431
0.00225274
0.00226997
0.00227994
0.00228944
0.00229738
0.00227201
0.00226377
0.00225447
0.00224486
0.00222065
0.00212058
0.0020835
0.00211248
0.00212076
0.00212631
0.00213271
0.00217946
0.00216842
0.00215587
0.00214557
0.00215468
0.00216225
0.00216927
0.0021748
0.00214321
0.00213577
0.00212948
0.00212059
0.00208535
0.00213167
0.00215656
0.00209155
0.00207161
0.00211647
0.00217652
0.00209479
0.00211623
0.0022004
0.00224132
0.00212768
0.00215412
0.00224174
0.00221209
0.00209965
0.0020745
0.0020833
0.00248485
0.00223153
0.00224258
0.00246125
0.00235789
0.00218917
0.00209114
0.0021315
0.00188688
0.00195821
0.00200337
0.00199276
0.00195169
0.00200986
0.00204628
0.00201616
0.00202853
0.00206154
0.00202161
0.00188572
0.00215299
0.00211055
0.00217329
0.00215664
0.00221448
0.00217472
0.00216369
0.00216111
0.00216075
0.00215268
0.00215352
0.00215703
0.00216647
0.0021759
0.00225641
0.00225524
0.00224972
0.00224726
0.00224657
0.00213701
0.00213623
0.00213399
0.00212838
0.0021207
0.0021177
0.00209421
0.00208552
0.00208347
0.00208373
0.00217997
0.00217912
0.00217935
0.00218164
0.00218298
0.00225227
0.00225714
0.00226015
0.00226352
0.00226578
0.00233125
0.00232944
0.00232423
0.00231348
0.00229914
0.00238429
0.00241481
0.00243062
0.00243671
0.00243929
0.00251529
0.00251061
0.00250483
0.00249643
0.00247343
0.0025018
0.00253141
0.00254141
0.00254696
0.00255051
0.0025663
0.00256113
0.0025544
0.00254404
0.00251584
0.00247836
0.00250479
0.00251504
0.00252165
0.00252607
0.00243327
0.00242493
0.00241428
0.00240483
0.0023938
0.00239369
0.00242928
0.00244201
0.00244761
0.00245131
0.00231593
0.00231588
0.00231357
0.00230398
0.00226327
0.00226523
0.00229937
0.00230787
0.00230806
0.00230624
0.00213376
0.0021259
0.00211733
0.00211359
0.00211425
0.0021252
0.00213299
0.00213995
0.00210433
0.00209937
0.00209351
0.00208511
0.00206851
0.00210694
0.00210927
0.00211436
0.00212097
0.00212621
0.00217909
0.00217978
0.00217967
0.00217875
0.00217682
0.00215302
0.002164
0.00216796
0.00217069
0.00217279
0.00209182
0.00208565
0.00207859
0.00207484
0.00205253
0.00205824
0.00206356
0.0020688
0.00209625
0.00209167
0.00208821
0.00208493
0.00208905
0.00208784
0.0020918
0.00209624
0.00217534
0.00217859
0.0021821
0.00218346
0.0021803
0.00209953
0.00207814
0.00206269
0.00207387
0.00200637
0.00201377
0.00210959
0.00214216
0.00213963
0.00208614
0.00212279
0.00222769
0.00197407
0.00202881
0.00205444
0.00198127
0.00203959
0.00203231
0.00211971
0.00218731
0.00219209
0.0021036
0.00209559
0.0021816
0.00209304
0.00204794
0.00202473
0.00197049
0.00222991
0.00216181
0.00214473
0.00230521
0.00235153
0.00259442
0.0027723
0.0028395
0.00279035
0.00264083
0.00242012
0.00218161
0.00194204
0.00172447
0.00160643
0.00162065
0.00162752
0.00162552
0.00162162
0.00178701
0.00178389
0.00178161
0.00178459
0.00179401
0.00194173
0.00197755
0.00199004
0.00198974
0.00198682
0.00209905
0.00209518
0.00209112
0.00209007
0.00208648
0.00211663
0.00214526
0.00214733
0.00214855
0.00215047
0.0022519
0.00225093
0.00224631
0.00222976
0.00217144
0.00231664
0.00233178
0.00233837
0.00234497
0.0023505
0.00239168
0.00238755
0.00238244
0.00237271
0.00232873
0.00233028
0.00237922
0.00239503
0.00240175
0.00240502
0.00247024
0.00246268
0.00245324
0.00244353
0.00242614
0.00245302
0.00248422
0.00249929
0.00250815
0.00251345
0.00254099
0.00253691
0.00253045
0.0025181
0.00248613
0.00245846
0.00249555
0.00250736
0.00251216
0.00251473
0.00238015
0.00237483
0.00236812
0.00236173
0.00234825
0.00236052
0.00237607
0.00237989
0.00238149
0.00238262
0.00227028
0.0022622
0.00225317
0.0022495
0.00226177
0.00226617
0.00227063
0.00227538
0.00227946
0.00228222
0.00224829
0.00225046
0.00225332
0.00225568
0.00225158
0.00221277
0.00220491
0.00220682
0.00220945
0.0022112
0.00212393
0.00212256
0.00212035
0.00211987
0.00213433
0.00209196
0.00208583
0.002087
0.00208864
0.00208917
0.00210134
0.00209844
0.00209508
0.00209368
0.00210297
0.00203172
0.00202139
0.00202307
0.00202972
0.00203618
0.0020417
0.00204984
0.00204378
0.00203551
0.00202832
0.00205842
0.0020595
0.00206266
0.00206533
0.00206126
0.002059
0.00205683
0.00205294
0.00204634
0.00206684
0.0020934
0.00208136
0.00208238
0.00207513
0.00200909
0.00204352
0.00203962
0.00200453
0.0021358
0.00208515
0.0019402
0.00179932
0.00187103
0.00198129
0.00192766
0.00180285
0.00187402
0.00192364
0.00196502
0.00196227
0.00203005
0.00202041
0.00202376
0.00199872
0.00182815
0.00194784
0.00192832
0.00178723
0.00171434
0.00192076
0.00211109
0.00235036
0.00254212
0.0026386
0.00260654
0.00245391
0.0022155
0.0019269
0.00162564
0.001365
0.00126666
0.00130061
0.00130553
0.00130035
0.00129427
0.00140585
0.00140158
0.00139784
0.00139846
0.00140331
0.00168194
0.00172607
0.0017364
0.00173217
0.00172543
0.00186253
0.00185724
0.00185173
0.00184862
0.00184287
0.00203215
0.00204453
0.00205068
0.00205632
0.00206061
0.00210422
0.00209693
0.00208797
0.00207976
0.00206195
0.00222111
0.00223644
0.00224521
0.00225354
0.00225991
0.00220444
0.00219789
0.00219052
0.00218499
0.00217256
0.00227442
0.00227158
0.00227284
0.00227806
0.00228277
0.00234984
0.00234684
0.0023415
0.00233264
0.00231837
0.00240036
0.00241303
0.00241833
0.00242385
0.00242894
0.00240825
0.00240563
0.0024025
0.00239994
0.00239569
0.00233388
0.00234205
0.0023413
0.00234191
0.002343
0.00230367
0.00230247
0.0023021
0.00230623
0.00231596
0.0022464
0.00224184
0.00224431
0.00224979
0.00225438
0.00238659
0.00238607
0.00238465
0.00237758
0.00234925
0.00237847
0.00235806
0.00240098
0.00240428
0.0023382
0.00236806
0.00237771
0.00237992
0.00237971
0.00225378
0.00225091
0.00224734
0.00224658
0.00225672
0.0022476
0.00225123
0.00225492
0.00225551
0.00225525
0.00222223
0.00222194
0.00222089
0.00221806
0.00222138
0.00218121
0.00218515
0.00218631
0.00218638
0.00218622
0.00207998
0.00207864
0.00207745
0.00208103
0.00210655
0.00220834
0.00219951
0.00218869
0.00218147
0.0021776
0.00211764
0.00212035
0.00212584
0.00213918
0.00218242
0.00207094
0.00206277
0.00205493
0.0020527
0.00205143
0.0020518
0.00203162
0.00203237
0.00203428
0.00204306
0.00198871
0.00199584
0.00200036
0.00200322
0.002076
0.00207505
0.0020737
0.00206763
0.00205172
0.00198011
0.00204891
0.00211395
0.00202954
0.00198525
0.00200698
0.00213718
0.00204246
0.00202603
0.00204468
0.00205149
0.00205196
0.00205088
0.00195224
0.00195188
0.00195062
0.00195114
0.00196903
0.00198809
0.00201187
0.00201264
0.00200886
0.00200499
0.00202439
0.00203079
0.00203715
0.00203573
0.00200308
0.00197604
0.00199848
0.0020102
0.00201313
0.00201457
0.00201711
0.00200198
0.00200546
0.00200764
0.00200322
0.00197027
0.00197409
0.00198057
0.00198507
0.00204353
0.00204032
0.00203632
0.00202968
0.00202249
0.00199205
0.00209106
0.00206147
0.00203346
0.00199059
0.001848
0.0019714
0.00194008
0.00176591
0.00173984
0.00189898
0.0018369
0.00164714
0.00182983
0.00189923
0.00197511
0.00202616
0.00186598
0.00188545
0.00192817
0.00190965
0.00190243
0.00195349
0.00200883
0.00197262
0.00206049
0.00204724
0.0020162
0.00199627
0.001825
0.00196676
0.00198258
0.00187152
0.00211791
0.00209566
0.00203134
0.00205305
0.00197516
0.00199731
0.00196337
0.00196893
0.0016019
0.00182289
0.00182742
0.00152807
0.00152066
0.00181199
0.0018945
0.00184352
0.00171414
0.00187352
0.00181392
0.00161052
0.00168806
0.00185672
0.00190878
0.00167021
0.00160518
0.00186964
0.00186192
0.00155329
0.00157619
0.00186376
0.0019196
0.00168253
0.00158692
0.00189399
0.00190061
0.00157502
0.00173088
0.00173633
0.00168491
0.00167233
0.00159567
0.00158655
0.00158904
0.00158955
0.00177415
0.00177328
0.00177257
0.00178188
0.00184452
0.00215142
0.00207435
0.00204921
0.00203519
0.00202706
0.00177994
0.00177619
0.00177229
0.00178353
0.00187121
0.00212628
0.00209328
0.00207234
0.00206035
0.00205392
0.0019656
0.00195793
0.00195008
0.00195518
0.00202422
0.00190358
0.00184704
0.00171098
0.00169993
0.0016439
0.00163549
0.00163654
0.00163633
0.00183633
0.00183804
0.00183873
0.00184044
0.00187155
0.00210555
0.00205763
0.00203849
0.00203128
0.00202843
0.00190509
0.00190172
0.00189786
0.00190362
0.00195869
0.00214966
0.00213675
0.00212344
0.0021161
0.00211222
0.00198652
0.00198425
0.00198238
0.00199096
0.00205486
0.00200296
0.00197131
0.0018829
0.0018624
0.00181434
0.00176553
0.00175914
0.00176106
0.00176313
0.00197499
0.00197785
0.00198468
0.00199998
0.00201595
0.00207664
0.00205718
0.00204399
0.0020392
0.002038
0.00200789
0.0020059
0.0020031
0.00200344
0.00202468
0.0020587
0.00203661
0.00203569
0.00203669
0.00203708
0.0020727
0.00219551
0.00215056
0.00205899
0.00189817
0.00181854
0.00180953
0.00181167
0.00181244
0.0018118
0.00200477
0.00200378
0.00200748
0.00202116
0.00203847
0.00204684
0.00203953
0.00203493
0.00203622
0.0020393
0.00190722
0.00190998
0.00191026
0.00190182
0.0018845
0.00178264
0.0017546
0.00174476
0.00174434
0.00174599
0.00156582
0.00156909
0.00157119
0.00156664
0.00156059
0.00140566
0.00138637
0.00137455
0.00137095
0.00137033
0.00137335
0.00137274
0.00137357
0.00138102
0.00140325
0.00116075
0.00114535
0.00113975
0.00114041
0.0011427
0.00113964
0.00114151
0.00114623
0.00115445
0.00116451
0.00101541
0.000983514
0.000981004
0.000982114
0.000983331
0.000987005
0.000981238
0.000976911
0.000978329
0.00100373
0.00132254
0.00135413
0.00135938
0.00135332
0.00134566
0.00143336
0.001427
0.00141995
0.00141777
0.00142785
0.00164733
0.00165586
0.00166336
0.00167115
0.00167761
0.00195868
0.00196289
0.00196546
0.00195341
0.00188678
0.00200556
0.00204765
0.00205725
0.00206024
0.00206285
0.00201176
0.00201403
0.00201407
0.00200389
0.0019737
0.00207772
0.00208085
0.00208598
0.00208903
0.0020917
0.00220748
0.00220825
0.00220777
0.00219955
0.00217438
0.0021189
0.00211059
0.00211217
0.00211359
0.00211343
0.00227337
0.00227073
0.00227072
0.00227479
0.00228
0.00213496
0.00212753
0.00212958
0.00213107
0.00213121
0.00216188
0.00216276
0.00216398
0.00216298
0.00215621
0.00210278
0.00208012
0.00207678
0.00207733
0.0020781
0.0021952
0.00219728
0.00220292
0.00221554
0.00222839
0.00222572
0.0021926
0.00218167
0.00217862
0.00217796
0.00202455
0.0020229
0.00202031
0.00201875
0.00203417
0.00200945
0.00199388
0.00199402
0.00199519
0.00199555
0.00214907
0.00215681
0.00217114
0.00219443
0.00221468
0.00223461
0.00222884
0.00220895
0.00219464
0.00218639
0.00217371
0.00217662
0.0021837
0.00219863
0.00221626
0.00225291
0.00222898
0.00222562
0.0022244
0.00222536
0.00205756
0.00205527
0.00205239
0.00205242
0.00206516
0.00193925
0.00194044
0.00196932
0.00198063
0.00199068
0.00199841
0.002039
0.00203915
0.00203773
0.00202122
0.0021091
0.00210715
0.00210533
0.00210474
0.00207361
0.00206956
0.0020671
0.00206858
0.00208719
0.00210245
0.00203427
0.00206259
0.00199531
0.00193112
0.00215649
0.0020751
0.00200896
0.00195568
0.0018281
0.00193322
0.0019124
0.00182303
0.00186271
0.00186736
0.00194752
0.00195855
0.00192304
0.00196253
0.00197701
0.00191782
0.00184049
0.00194045
0.00194658
0.00185511
0.00186506
0.00192349
0.00188607
0.00184515
0.00190536
0.00166462
0.00152363
0.00141436
0.00136838
0.00137953
0.00141866
0.0014506
0.0014519
0.00140364
0.00128967
0.00112936
0.000965469
0.000822223
0.000687071
0.000738828
0.00072787
0.000728425
0.000731734
0.000734346
0.000956799
0.000968387
0.000981033
0.000985163
0.000964055
0.000993472
0.000990223
0.000986971
0.000983517
0.000980811
0.00104204
0.00105287
0.00106369
0.00106427
0.00104318
0.00120172
0.00116986
0.00116762
0.00117534
0.0011836
0.0014448
0.00145419
0.00146268
0.00145627
0.00141598
0.00160252
0.00159578
0.00159638
0.00160286
0.0016082
0.0018484
0.00184284
0.00183782
0.00183683
0.00184226
0.00174489
0.00176505
0.00176944
0.00176839
0.001766
0.0017029
0.0017082
0.00171145
0.00170955
0.00171565
0.00199433
0.00197433
0.00196604
0.00196894
0.0019739
0.00206315
0.00206152
0.0020629
0.00207461
0.00210917
0.00193077
0.00193552
0.00193644
0.00193465
0.00193279
0.00188888
0.00189065
0.00189278
0.00189648
0.00191634
0.00211835
0.0021092
0.00209485
0.00208958
0.00208905
0.00209728
0.00209771
0.00210156
0.00211609
0.00215673
0.00193292
0.00192449
0.00192441
0.00192506
0.00192453
0.00197162
0.00197265
0.00197386
0.00197465
0.00197553
0.00198096
0.00194949
0.0019426
0.00194075
0.00193986
0.00213913
0.00214676
0.0021603
0.00217921
0.00218459
0.00191282
0.00191006
0.00191355
0.00191495
0.00191523
0.00191862
0.00191683
0.00191172
0.00190112
0.00189486
0.00187377
0.00188037
0.00189376
0.00190321
0.00190828
0.00196777
0.00196229
0.00195287
0.00193597
0.001911
0.00179436
0.00182752
0.00184702
0.00185708
0.00186206
0.00206782
0.00206331
0.00205592
0.00203715
0.00197702
0.00215502
0.00216915
0.00216384
0.0021589
0.00215679
0.0020519
0.00205818
0.00206423
0.00206067
0.00199633
0.00200076
0.00200843
0.0020152
0.00205438
0.00204441
0.00203287
0.00202319
0.00202426
0.00203423
0.00203344
0.00203074
0.00225103
0.00224996
0.00224991
0.00224135
0.00216715
0.00195853
0.0020255
0.00204264
0.00190778
0.00186412
0.00203581
0.00202492
0.00186496
0.00189787
0.00206276
0.00208789
0.00209623
0.0020984
0.00210125
0.00196719
0.00195952
0.00194615
0.00193022
0.00215183
0.00216653
0.00216293
0.00216058
0.00203103
0.00202776
0.00202194
0.00200947
0.00199415
0.0022068
0.00217311
0.00216633
0.0021575
0.00215248
0.00216878
0.00216671
0.00216493
0.00216235
0.0022499
0.00197081
0.00202004
0.00201361
0.00201544
0.00201982
0.00202321
0.00207255
0.00207688
0.00208079
0.00207047
0.00199819
0.00201949
0.00202539
0.00202953
0.00200435
0.00199998
0.00199467
0.00198756
0.00196059
0.00185403
0.00181962
0.0020201
0.00199855
0.00198643
0.00196478
0.00194004
0.0019353
0.0019031
0.00206788
0.00199923
0.00192642
0.00195512
0.00198924
0.00192066
0.0019627
0.00192692
0.0018767
0.00166949
0.00140912
0.00115078
0.000966566
0.000878519
0.000891858
0.000956502
0.00100425
0.000988173
0.000906629
0.000788801
0.000698033
0.000591007
0.000527006
0.000448935
0.000492989
0.000482199
0.000474009
0.000464421
0.000456462
0.000517893
0.00051751
0.000519837
0.000529884
0.000567996
0.000657506
0.000655727
0.000648827
0.000637035
0.000625648
0.000745655
0.000745286
0.000747122
0.000758805
0.000789901
0.00102368
0.000983238
0.00096665
0.000961027
0.000958993
0.00111556
0.00112449
0.00113189
0.00113182
0.00113143
0.00142805
0.00138664
0.00137476
0.00137704
0.00138263
0.00160057
0.00160066
0.00160389
0.00161875
0.00166248
0.00149381
0.00149216
0.0014898
0.00148627
0.00148401
0.00146769
0.00147305
0.0014777
0.00148226
0.00150836
0.00182178
0.00179563
0.0017766
0.00177054
0.00177079
0.00186256
0.0018637
0.00186892
0.00188796
0.00194357
0.00167207
0.00167438
0.00167382
0.00167177
0.00166974
0.00169253
0.00169532
0.00169871
0.00170485
0.0017294
0.0019672
0.00195535
0.00193602
0.00192491
0.00192064
0.00195343
0.00195813
0.00196944
0.00199219
0.00201593
0.00209916
0.00205742
0.0020369
0.00202743
0.00202351
0.0017521
0.00175163
0.00174714
0.00173734
0.00173692
0.00178739
0.00178788
0.00179612
0.00180121
0.00180292
0.0018794
0.00187748
0.00187495
0.00187282
0.00187045
0.0019349
0.00194919
0.00195193
0.00195233
0.00195251
0.0020378
0.00203773
0.00203728
0.0020334
0.00201175
0.00197458
0.0019908
0.00199425
0.00199506
0.00199483
0.00199044
0.00198323
0.00197082
0.00194985
0.00191581
0.00194984
0.00194938
0.00195745
0.00196454
0.00196886
0.00212307
0.00212952
0.00213929
0.00214539
0.00211257
0.0020067
0.00207377
0.00207765
0.00207297
0.00206887
0.002012
0.0020105
0.00200738
0.00200118
0.00196692
0.00208678
0.0020803
0.00207478
0.00207121
0.00207127
0.00202134
0.00186605
0.00198945
0.00193397
0.00192923
0.00216549
0.00177284
0.00191717
0.0022523
0.00181005
0.00205447
0.00279227
0.00192203
0.00214745
0.00212379
0.00248091
0.0019616
0.00168284
0.00127254
0.000927182
0.00067474
0.000597932
0.000642071
0.000727495
0.00077227
0.000727587
0.000621114
0.000509479
0.000419424
0.000379821
0.000336817
0.000417699
0.000420107
0.000415475
0.000410467
0.00040701
0.000346926
0.000353986
0.000359955
0.00036346
0.000373301
0.00058043
0.000561448
0.000543146
0.000531751
0.000525646
0.000740335
0.000748698
0.000760801
0.00077688
0.000808353
0.000799318
0.000772248
0.000766545
0.000760148
0.000753321
0.00109577
0.00110269
0.00111782
0.00114732
0.00119073
0.001394
0.00133954
0.00131925
0.00130834
0.00130198
0.00129908
0.00130379
0.00130894
0.00131595
0.00134837
0.00168952
0.00165476
0.00162866
0.00161625
0.0016116
0.00171709
0.00172121
0.00172968
0.00174723
0.00178664
0.00144566
0.00142623
0.00142695
0.00142961
0.00143102
0.0015558
0.00155626
0.00155715
0.00155915
0.0015723
0.00165029
0.00164955
0.00164694
0.0016436
0.00164104
0.00172891
0.00173643
0.00174517
0.0017461
0.00171802
0.00175644
0.00178223
0.00177811
0.00176713
0.00175699
0.00194473
0.00195272
0.0019647
0.00197006
0.00193082
0.00191775
0.00193261
0.00193386
0.00193447
0.00193461
0.00192421
0.0019229
0.00191917
0.00191192
0.00188429
0.00199706
0.00202959
0.00203886
0.0020439
0.00204725
0.00209881
0.00210009
0.00210156
0.0020983
0.00206363
0.0020655
0.00207117
0.0020743
0.00207891
0.00208252
0.00221012
0.00221803
0.00222968
0.0022313
0.00216638
0.00196845
0.00192131
0.00192715
0.00194428
0.00195675
0.00217875
0.00217551
0.00217076
0.00216552
0.00214872
0.00208691
0.00206168
0.00205908
0.00206141
0.00206282
0.00211195
0.00211927
0.00212889
0.00212974
0.00208527
0.00193291
0.00202108
0.00202387
0.0020141
0.00200547
0.00210738
0.00211563
0.00212958
0.0021313
0.00202844
0.00184477
0.00186046
0.00186927
0.00187424
0.00187657
0.00203885
0.0020444
0.002049
0.00204341
0.00201016
0.00200814
0.00191062
0.001877
0.00201753
0.00202611
0.00187259
0.00191859
0.00192504
0.00192537
0.00192413
0.00201652
0.00202012
0.00202387
0.00202585
0.00199785
0.00191922
0.00191366
0.00194599
0.00192921
0.00187373
0.00190949
0.00195465
0.00195285
0.00184712
0.00188438
0.00197487
0.00196924
0.00195116
0.00219274
0.00207001
0.00202458
0.00206872
0.00202517
0.00200309
0.00195025
0.00185748
0.00188021
0.00196583
0.00199317
0.00196746
0.0020304
0.00202377
0.00201798
0.00201838
0.00202885
0.00200806
0.00206073
0.00214591
0.0020863
0.00202567
0.00199422
0.0019901
0.00194091
0.00199098
0.00201673
0.00201942
0.00201117
0.00200771
0.00200846
0.00197546
0.00194728
0.00198023
0.00195336
0.00191933
0.00181778
0.00191788
0.00191784
0.00179813
0.00185272
0.00195617
0.00190005
0.00184274
0.00186364
0.00190398
0.00194439
0.00194879
0.00195589
0.00193981
0.00192025
0.00195401
0.00200048
0.00193005
0.00194743
0.001989
0.00197886
0.00196007
0.00194711
0.00199151
0.00216024
0.00198169
0.00197408
0.00208698
0.00194709
0.0019413
0.00178672
0.00155651
0.00123365
0.000902118
0.000756932
0.000788764
0.00111773
0.00128083
0.00160468
0.00177763
0.00180775
0.00182238
0.00183294
0.00213037
0.00214602
0.00216284
0.00216757
0.0021149
0.00151787
0.00159803
0.00161029
0.00161005
0.00160553
0.00224404
0.002266
0.00229313
0.00230273
0.00225473
0.00161172
0.00159033
0.00158938
0.00159213
0.00159195
0.00229174
0.00231483
0.00234788
0.00237715
0.00233611
0.00231402
0.00243054
0.00244203
0.00243094
0.00241905
0.00172932
0.00173166
0.00172915
0.00171781
0.00166887
0.00150494
0.00157815
0.00157984
0.00157763
0.00157556
0.00200684
0.00201742
0.00203061
0.00204548
0.00209711
0.00156967
0.00153541
0.00153428
0.0015365
0.00153479
0.00158692
0.00158853
0.00159115
0.001599
0.00162391
0.00207927
0.00199271
0.00196423
0.00194956
0.00193998
0.00185163
0.00186306
0.00188274
0.00191389
0.00193981
0.00198046
0.00189353
0.00187006
0.0018609
0.00185603
0.00182353
0.00183002
0.00184371
0.00186959
0.0019152
0.00183085
0.00176926
0.00176069
0.00176386
0.00176755
0.00155991
0.00151664
0.00151195
0.00151253
0.00151146
0.00158189
0.00158141
0.00157917
0.00158072
0.00161057
0.00192053
0.00188955
0.00186772
0.00185627
0.0018516
0.0017936
0.00179238
0.00179459
0.00181546
0.00191341
0.00185347
0.00184905
0.00185188
0.00185317
0.00185306
0.00189457
0.00189368
0.00189175
0.00188955
0.00189642
0.00194893
0.0018616
0.00174488
0.00155067
0.00147023
0.00145798
0.00146064
0.00146131
0.00145987
0.001732
0.00173483
0.00174167
0.00176103
0.00179332
0.00179869
0.00177045
0.00175472
0.00174984
0.00174869
0.00153461
0.00153772
0.00154052
0.0015382
0.001533
0.0014253
0.00140473
0.00139047
0.00138376
0.00138051
0.00118612
0.00118839
0.0011953
0.00121242
0.00123445
0.00118239
0.00116572
0.00115513
0.0011517
0.00115099
0.000984887
0.000990796
0.000996067
0.000996022
0.000993231
0.00102525
0.00104136
0.00104147
0.00103276
0.00102309
0.000784233
0.000783922
0.000785912
0.000794693
0.000816763
0.000851963
0.000832969
0.000830081
0.000831188
0.000832217
0.00080224
0.000803172
0.000806149
0.00081544
0.000841892
0.000804034
0.000812306
0.00080648
0.000795251
0.000785428
0.00056744
0.000566802
0.000566773
0.000571173
0.000590986
0.000627776
0.000597984
0.000593088
0.000593184
0.000593811
0.000578055
0.00057969
0.000582597
0.000589745
0.00061608
0.0006916
0.000697637
0.000690745
0.000679621
0.000670111
0.000654172
0.000653103
0.000652922
0.000658637
0.000687291
0.000836088
0.000812593
0.000806873
0.000808144
0.000810111
0.000736448
0.000644523
0.000650515
0.000625521
0.000617146
0.000612279
0.000608789
0.000547394
0.000530056
0.000581196
0.000588276
0.00058496
0.00057747
0.000570844
0.000521287
0.000518719
0.000517538
0.000522883
0.000555196
0.000494644
0.000477705
0.000473032
0.000468934
0.000465163
0.000424337
0.000424727
0.000426038
0.000430607
0.000448962
0.000368863
0.000351368
0.000347066
0.000348371
0.000350004
0.000393534
0.000395808
0.000400355
0.000411706
0.000438997
0.000476532
0.000464553
0.000458427
0.000448995
0.000440005
0.000591761
0.000592859
0.000598543
0.000616073
0.000654332
0.000866828
0.000819817
0.000798724
0.000788728
0.000783151
0.000873674
0.000882682