/*--------------------------------*- C++ -*----------------------------------*\
  =========                 |
  \\      /  F ield         | OpenFOAM: The Open Source CFD Toolbox
   \\    /   O peration     | Website:  https://openfoam.org
    \\  /    A nd           | Version:  7
     \\/     M anipulation  |
\*---------------------------------------------------------------------------*/
FoamFile
{
    version     2.0;
    format      ascii;
    class       volVectorField;
    location    "4.5";
    object      wallShearStress;
}
// * * * * * * * * * * * * * * * * * * * * * * * * * * * * * * * * * * * * * //

dimensions      [0 2 -2 0 0 0 0];

internalField   uniform (0 0 0);

boundaryField
{
    outlet1
    {
        type            calculated;
        value           uniform (0 0 0);
    }
    Wall
    {
        type            calculated;
        value           nonuniform List<vector> 
40276
(
(0.000366145 5.16509e-05 0.000182258)
(-0.000186494 -8.0078e-06 0.000415401)
(-0.000190126 -7.32715e-06 0.000407206)
(0.000138443 -9.92159e-05 0.000151452)
(0.000107677 -5.9636e-05 0.000135617)
(8.19576e-05 -1.48355e-05 0.000135031)
(8.14664e-05 1.5072e-05 0.000143058)
(0.000117901 2.94539e-05 0.000166469)
(9.90468e-05 3.21401e-05 0.000158123)
(9.28356e-05 2.46125e-05 0.00015754)
(0.000422854 4.32799e-05 0.000451899)
(0.000510798 1.98367e-05 0.000492567)
(0.000584202 4.10549e-05 0.000938121)
(0.000562915 4.42999e-05 0.000870315)
(0.000416003 -5.28735e-06 0.000306473)
(0.000375221 1.25133e-05 0.000340063)
(0.000372444 3.11961e-05 9.91766e-05)
(0.000340138 2.90492e-05 5.21271e-05)
(-5.75367e-05 -5.22996e-05 -8.45784e-05)
(-5.98306e-05 -7.89715e-05 -9.12181e-05)
(-0.000140675 3.57734e-05 0.000210728)
(-0.000170979 4.05728e-05 0.000198042)
(-0.000114964 3.10442e-05 6.76667e-05)
(-0.000133387 2.86251e-05 6.40623e-05)
(-9.7414e-05 2.31225e-05 4.32835e-05)
(-0.000109548 2.41715e-05 3.75929e-05)
(-0.000112669 3.86475e-05 1.82759e-05)
(-0.0001109 3.90299e-05 1.3232e-05)
(-0.000176109 5.66979e-05 3.2809e-05)
(-0.000155855 4.79667e-05 2.37518e-05)
(-0.000129787 4.26018e-05 8.1828e-05)
(-0.000146593 5.14019e-05 9.024e-05)
(-5.25772e-05 -3.1438e-06 0.000159692)
(-4.68196e-05 -4.83114e-06 0.000148423)
(-5.58621e-05 9.95134e-06 7.22897e-06)
(-5.51229e-05 1.12277e-05 6.88446e-06)
(0.00058037 6.00209e-05 0.000175622)
(0.000628891 3.73125e-05 0.000184238)
(0.00110203 0.000263076 0.00033729)
(0.0012616 0.000345859 0.000360586)
(0.000999595 5.2866e-05 0.000103543)
(0.000946557 2.25471e-05 0.000129078)
(-4.16696e-05 -1.44051e-05 -0.000395114)
(-2.07129e-05 -1.14133e-05 -0.00036545)
(-4.38658e-05 -1.57247e-06 -0.000366436)
(-3.9127e-05 -6.41486e-06 -0.000309456)
(-6.81191e-05 1.97401e-07 -0.000317777)
(-5.29372e-05 -3.27446e-06 -0.000263212)
(-6.44386e-05 -6.55576e-07 -0.000233245)
(-6.4503e-05 1.477e-06 -0.000200053)
(-5.43758e-05 -1.5001e-06 -0.000170458)
(-6.74191e-05 1.89042e-06 -0.000177873)
(-6.03444e-05 -3.61104e-07 -0.00014791)
(-6.3553e-05 2.96437e-06 -0.000148954)
(0.000436024 7.54702e-05 0.00023689)
(0.000453205 8.9386e-05 0.000206257)
(-2.83141e-05 1.77953e-05 0.000152937)
(6.39887e-05 2.20535e-05 0.000190665)
(-2.19413e-05 1.29919e-05 0.000156176)
(-0.000461326 -8.48899e-05 -0.00044131)
(-0.000486485 -7.11856e-05 -0.00044836)
(1.90232e-05 3.45476e-05 0.000290867)
(-1.27561e-05 -1.17216e-05 0.000224808)
(7.35168e-06 -4.92042e-07 -2.37461e-05)
(9.91525e-06 1.4434e-06 -1.90172e-05)
(5.83067e-06 9.20962e-08 -1.91557e-05)
(2.72264e-06 -1.23335e-06 -1.89299e-05)
(7.68875e-06 9.67329e-08 -2.18583e-05)
(-0.00011002 -1.39855e-05 -0.000100365)
(-0.000121084 -3.50973e-06 -0.000108772)
(-6.04746e-05 5.30808e-06 -0.000127411)
(-6.02777e-05 -1.97685e-07 -0.000130114)
(-2.5802e-05 1.94504e-06 -2.66537e-05)
(-2.56437e-05 1.94553e-06 -2.57069e-05)
(-2.2842e-05 1.93854e-06 -2.42824e-05)
(-2.18398e-05 2.43462e-06 -2.32472e-05)
(-2.4834e-05 1.12422e-06 -2.45081e-05)
(2.1765e-05 -1.39733e-06 -8.06841e-06)
(1.8804e-05 -1.52936e-06 -1.1693e-05)
(1.04099e-06 4.15419e-06 5.19073e-09)
(1.92203e-06 2.71317e-07 1.86288e-08)
(8.45701e-06 -2.96072e-07 -5.10977e-07)
(1.84738e-05 -9.69894e-07 1.2696e-05)
(1.75928e-05 -9.95515e-07 1.28294e-05)
(2.39044e-05 -4.63443e-06 1.67349e-05)
(5.95216e-06 3.14037e-07 -1.4558e-05)
(3.09961e-06 -7.8354e-07 -1.44233e-05)
(5.8421e-06 4.17007e-07 -1.06165e-05)
(2.18513e-05 -4.80777e-06 1.57715e-05)
(2.14959e-05 -6.33079e-06 1.57749e-05)
(1.85449e-05 -5.85839e-06 1.41656e-05)
(-3.80712e-05 -3.7487e-06 -3.44925e-05)
(3.14568e-06 -4.40387e-07 -1.06633e-05)
(5.58393e-06 4.76514e-07 -7.49996e-06)
(3.1593e-06 -2.1075e-07 -7.71711e-06)
(2.89904e-06 -9.74802e-08 -5.38468e-06)
(2.50801e-06 1.44406e-08 -3.61094e-06)
(1.9297e-06 3.43155e-08 -2.4597e-06)
(-8.98527e-07 -5.04511e-08 -1.91872e-06)
(-1.63603e-06 -2.59762e-08 -1.89891e-06)
(-2.47817e-06 -2.78039e-08 -2.18869e-06)
(-5.90232e-06 -8.92171e-08 -5.6346e-06)
(-6.309e-06 -9.28544e-08 -6.54706e-06)
(-4.29289e-05 -1.13532e-07 -3.771e-05)
(-6.69607e-06 -1.91879e-08 -7.7058e-06)
(-1.57672e-05 -6.33537e-06 -1.91717e-05)
(-1.30592e-05 -6.31705e-06 -1.52395e-05)
(-6.78508e-06 -9.06084e-08 -8.75543e-06)
(-6.83178e-06 -3.75313e-09 -1.0051e-05)
(-6.47504e-06 -3.34157e-07 -1.07367e-05)
(-6.7691e-06 1.69342e-09 -1.16228e-05)
(-6.2823e-06 -4.03239e-07 -1.25509e-05)
(-6.04714e-06 -1.94293e-07 -1.31058e-05)
(-5.74032e-06 -7.32651e-07 -1.45174e-05)
(-5.63173e-06 -1.14956e-06 -1.37911e-05)
(4.05138e-06 -8.80281e-07 -2.55125e-05)
(3.64873e-06 -2.86021e-06 -2.72766e-05)
(1.90772e-06 -2.89871e-06 -2.59261e-05)
(-0.000272608 -6.265e-05 0.000484581)
(-0.000275345 -6.10856e-05 0.000439494)
(-1.15793e-05 -1.21019e-06 5.34532e-06)
(-1.1325e-05 -1.47897e-06 7.63441e-06)
(-3.63019e-05 -2.22039e-06 1.96679e-05)
(-3.02471e-05 -3.3267e-06 1.76454e-05)
(-3.01594e-06 -1.28552e-05 -3.79447e-06)
(-1.12549e-06 -1.251e-05 -1.59486e-06)
(-0.000127595 2.58653e-05 0.000184213)
(-0.000110738 3.46852e-05 0.000156601)
(-0.000160155 -1.65959e-05 0.000274236)
(-0.000139966 -2.26052e-05 0.000236122)
(-0.000103313 -5.38072e-06 0.000173467)
(-9.04023e-05 -8.4637e-06 0.000149318)
(-0.000157404 9.54714e-05 0.000470287)
(-0.000219058 0.000169518 0.000659316)
(7.89713e-06 -1.20562e-05 0.000188761)
(-6.9051e-07 -4.82653e-06 0.00015935)
(-0.000102101 2.75426e-05 0.000193115)
(-5.56119e-05 1.25833e-06 0.000167595)
(-0.000182414 -5.28179e-05 0.000494776)
(-0.00018284 -3.50882e-05 0.000495029)
(-0.000182524 -4.15582e-05 0.000527761)
(-0.000199208 -1.75489e-05 0.000529743)
(-0.000559677 2.06739e-06 -0.000151355)
(-0.000641977 2.72513e-06 -0.00018348)
(-2.27571e-05 -7.96787e-05 9.95859e-06)
(-2.65514e-05 -7.89426e-05 1.19247e-05)
(-2.147e-05 -4.38428e-05 6.54475e-05)
(-2.52298e-05 -5.36261e-05 8.17788e-05)
(-2.90583e-05 -5.2525e-05 6.60518e-05)
(-2.3231e-05 -4.04344e-05 5.37186e-05)
(-1.54696e-05 -8.61474e-05 8.48791e-06)
(-1.98969e-05 -9.8355e-05 6.53332e-06)
(-2.34996e-05 -8.34796e-05 8.81977e-06)
(-2.18866e-05 -8.64873e-05 9.2131e-06)
(-2.31359e-05 -0.000128636 -1.56103e-05)
(-1.99742e-05 -0.000111411 -1.41257e-05)
(-7.64326e-06 -5.66216e-05 -3.31686e-06)
(-9.87913e-06 -5.05368e-05 -4.75769e-06)
(-6.09773e-05 -3.1178e-05 9.45435e-05)
(-5.57648e-05 -3.30028e-05 8.93425e-05)
(8.49715e-05 4.24316e-06 -0.000236359)
(9.17134e-05 -4.46022e-06 -0.000221423)
(-0.000136799 -5.87263e-05 -1.24487e-05)
(-0.000135655 -6.56518e-05 -1.46313e-05)
(-0.00030099 -4.8198e-05 0.000143357)
(-0.000322982 -5.2402e-05 0.000134294)
(-0.000290318 -7.32084e-05 -2.59497e-05)
(-0.000283683 -6.05805e-05 -3.50951e-05)
(-0.000172144 0.000193403 0.000234422)
(-0.000165797 0.000242001 0.000217429)
(-0.00024875 -4.46884e-05 1.31668e-05)
(-0.000130851 -4.64729e-05 -1.84341e-05)
(-0.000206926 -7.77726e-05 7.47576e-05)
(-0.000178296 -7.62218e-05 6.32211e-05)
(-0.000227492 -5.19059e-05 5.87975e-05)
(-6.72129e-05 -4.19427e-05 -7.07582e-06)
(-3.91121e-05 -2.09066e-05 6.05156e-05)
(-3.22314e-05 -1.93843e-05 5.58695e-05)
(0.000632178 -0.000261264 0.000446284)
(0.000564359 -0.000220043 0.000366464)
(0.000570228 -0.000333849 0.000234563)
(0.000514008 -0.000236239 0.000262437)
(0.000531581 -0.000286154 0.000247052)
(0.000309792 -0.000240056 0.000183236)
(0.000410718 -0.000290809 0.000216761)
(0.000324036 -0.000232849 0.000190459)
(0.000505623 -0.00024819 0.000372864)
(0.000541363 -0.000306642 0.000358837)
(0.000521024 -0.000288103 0.000302681)
(0.000428094 -0.000313025 0.000186313)
(0.00052867 -0.000350046 0.000183451)
(0.000442039 -0.000276257 0.000232716)
(0.000196459 -0.000151858 0.000156788)
(0.000300671 -0.000245403 0.000181276)
(0.000236018 -0.000171939 0.000178269)
(0.0001847 -0.000143635 0.000162125)
(8.49254e-05 -2.56301e-05 0.000133972)
(0.0002317 9.10251e-05 7.74616e-05)
(0.000286559 9.34116e-05 0.000118882)
(0.000249103 6.60738e-05 0.000128297)
(0.000262471 5.42005e-05 7.58681e-05)
(0.000316106 5.77185e-05 0.00011244)
(0.00028161 8.54124e-05 0.000117162)
(0.00025759 6.74605e-05 0.000101107)
(8.90487e-05 1.39077e-05 0.000148211)
(9.09455e-05 2.50654e-05 0.000136231)
(0.000106185 8.26171e-06 0.000164642)
(0.000113731 9.94225e-07 0.000180783)
(0.000121908 1.36955e-05 0.00017926)
(0.000101668 1.5006e-05 0.000153697)
(0.00010715 -1.23204e-06 0.000185471)
(7.76788e-05 1.23534e-06 0.000152339)
(5.78729e-05 -6.7733e-06 0.000123811)
(6.04222e-05 -2.19302e-05 0.000132503)
(7.64726e-05 -4.40862e-06 0.000134947)
(3.7618e-05 -3.67773e-05 0.000109086)
(5.99014e-05 -1.98562e-05 0.000107601)
(4.19748e-05 -1.95409e-05 0.000102002)
(1.90873e-05 -2.955e-05 8.61313e-05)
(2.7344e-05 -2.88822e-05 8.73828e-05)
(0.000119459 5.56534e-05 0.0001028)
(0.0001389 6.44559e-05 0.000106731)
(0.000142042 6.05453e-05 0.00011278)
(0.000138589 6.17765e-05 8.89704e-05)
(8.4527e-05 2.55239e-05 0.000124647)
(9.32784e-05 3.5331e-05 0.000100515)
(9.68123e-05 4.59539e-05 6.99357e-05)
(0.000100282 4.27933e-05 7.2032e-05)
(8.48497e-05 3.33299e-05 8.14638e-05)
(0.00021045 8.38449e-05 7.20495e-05)
(0.000162965 7.23745e-05 6.73935e-05)
(0.00023088 8.21368e-05 8.10771e-05)
(0.000217324 6.37364e-05 7.00014e-05)
(0.000178482 7.25093e-05 5.42957e-05)
(0.000171731 5.93068e-05 6.06053e-05)
(5.25365e-05 2.39319e-06 9.75471e-05)
(5.57793e-05 9.9141e-06 9.21839e-05)
(3.91677e-05 -1.25963e-05 0.000104183)
(5.66214e-05 1.806e-05 7.81521e-05)
(1.97779e-05 -1.67415e-05 6.95856e-05)
(2.85202e-05 1.49909e-06 5.71373e-05)
(7.36387e-05 2.96275e-05 7.60099e-05)
(0.000105758 4.87363e-05 5.37277e-05)
(3.10276e-05 1.29861e-05 2.72318e-05)
(4.86271e-05 2.11894e-05 3.95167e-05)
(3.36561e-05 1.4912e-05 3.13316e-05)
(8.5778e-05 4.6674e-05 2.53283e-05)
(0.000121574 5.88287e-05 1.39243e-05)
(0.000118388 4.51835e-05 4.3659e-05)
(0.000111963 5.16394e-05 3.29935e-05)
(0.000302711 2.39163e-05 0.000528333)
(0.000341169 5.25747e-05 0.000618461)
(0.000306439 -4.087e-06 0.000545535)
(0.000315083 2.56158e-05 0.000556245)
(0.000381916 0.000107104 0.000431991)
(0.00041777 0.000114895 0.000519038)
(0.000298054 0.000103147 0.000427891)
(0.000328606 9.79392e-05 0.000492218)
(0.000302193 0.000105419 0.00046338)
(0.000285638 8.79353e-05 0.000480352)
(0.000407577 0.000160407 0.000538964)
(0.000342207 0.000136655 0.000406655)
(0.000394572 0.000144953 0.00051074)
(0.000249408 9.31596e-05 0.000415834)
(0.000337099 0.000121437 0.000520082)
(0.000433041 0.000138304 0.000417542)
(0.000378463 0.000139019 0.000480642)
(0.00037496 0.000137735 0.000486212)
(0.000421792 0.000136013 0.000588877)
(0.000441403 0.000173406 0.000526201)
(0.000483933 0.000187513 0.000521331)
(0.000466713 0.000190279 0.000484624)
(0.000458804 0.000158722 0.000582504)
(0.000444864 0.000162945 0.0005843)
(0.000438457 8.18258e-05 0.0005161)
(0.000559086 8.81923e-05 0.000550587)
(0.000428003 0.000102392 0.000529437)
(0.000324022 0.000101284 0.000406016)
(0.000411476 9.85343e-05 0.000509492)
(0.000449213 7.72794e-05 0.000445895)
(0.000334682 6.14188e-05 0.00033311)
(0.000357535 0.000108015 0.000392883)
(0.000389526 9.05617e-05 0.000386342)
(0.000389336 0.000100444 0.000372987)
(0.000540264 -4.13914e-05 0.000482649)
(0.0005593 -6.10481e-05 0.000480567)
(0.000582414 -0.000159479 0.000453583)
(0.000445045 -6.83938e-05 0.000403903)
(0.000537153 -0.000135952 0.000344816)
(0.000415243 -9.69774e-06 0.000368776)
(0.000582855 -0.000149255 0.000367348)
(0.000387171 -3.10614e-05 0.000304572)
(0.000505422 -0.00011407 0.000283584)
(0.000610425 -0.000244709 0.000270681)
(0.00036205 6.22818e-05 0.000378369)
(0.000362288 9.07779e-05 0.000391356)
(0.000403079 2.35997e-05 0.000317365)
(0.000396501 6.5571e-05 0.000331917)
(0.000421132 0.000151917 0.000407539)
(0.000446102 0.000153413 0.000536551)
(0.00044866 0.000153421 0.000487068)
(0.000466903 0.000134905 0.000397512)
(0.000521793 0.000170673 0.00043837)
(0.000511257 0.000194435 0.000547571)
(0.00045215 0.000157126 0.000541334)
(0.00048235 0.000157224 0.000574628)
(0.000485343 0.00017788 0.000409996)
(0.000465911 0.000164445 0.000546888)
(0.000467296 0.000168989 0.000549614)
(0.000578999 0.000209111 0.00067288)
(0.000558094 0.000199818 0.00052941)
(0.000420013 0.000122435 0.000383845)
(0.000593372 0.000187338 0.00043336)
(0.000472003 0.000107958 0.000395055)
(0.000605672 0.000152829 0.000399025)
(0.000527818 0.000183885 0.00044558)
(0.000535494 0.000169194 0.000522145)
(0.000713076 0.000269894 0.000532185)
(0.00056608 0.000192982 0.000429636)
(0.000543661 0.000165548 0.000455279)
(0.000757361 0.000268419 0.000480863)
(0.000574104 0.000248735 0.000488503)
(0.000612148 0.000212128 0.00060425)
(0.0005687 0.000184062 0.00064001)
(0.000671777 0.000230956 0.000620703)
(0.000673862 0.00023838 0.000599647)
(0.000352543 0.000136131 0.000471041)
(0.000347178 0.000128947 0.000470819)
(0.000236798 6.6871e-05 0.000439702)
(0.000345619 0.000127765 0.000508289)
(0.000430844 0.000117263 0.000653119)
(0.000395418 0.000107799 0.000605614)
(0.000376331 0.000138525 0.000499187)
(0.000398351 0.000148442 0.000523397)
(0.000381752 0.000142666 0.000570027)
(0.000359309 5.59076e-05 0.000647973)
(0.000310006 3.46222e-05 0.000583599)
(0.000366939 0.000101241 0.000617417)
(0.000344956 8.87458e-05 0.000597037)
(0.000309052 3.32503e-05 0.000508523)
(0.000421981 0.000162433 0.000543866)
(0.000446651 0.00013203 0.000630219)
(0.000396041 0.000113934 0.000607941)
(0.00038126 -1.37189e-05 0.000635038)
(0.000476134 0.000136842 0.000724844)
(0.000357308 5.07882e-05 0.000622886)
(0.000462609 0.000179754 0.000538334)
(0.000505572 0.000191385 0.0005822)
(0.000451752 0.000136648 0.000645417)
(0.000434571 0.000165774 0.000568385)
(0.000504524 0.000196492 0.000577165)
(0.000504422 0.000119894 0.000709169)
(0.000511198 0.000135648 0.000787864)
(0.000406499 3.59613e-05 0.000686247)
(0.000371318 3.65086e-05 0.000613414)
(0.000403429 6.54198e-05 0.000653394)
(0.000459378 0.000121639 0.00068936)
(0.000391405 6.35123e-05 0.000611582)
(0.000511227 0.000209441 0.000611262)
(0.000512453 9.75101e-05 0.000757972)
(0.000591312 0.00018315 0.00085584)
(0.000274966 5.97203e-06 0.00048154)
(0.000288051 4.74767e-05 0.000496638)
(0.000348215 0.000125907 0.000545653)
(0.000367537 7.82656e-05 0.00062223)
(0.000342662 2.06381e-05 0.000568812)
(0.000432103 8.6929e-05 0.000688104)
(0.000328541 -1.73317e-05 0.000555361)
(0.000332932 3.13877e-05 0.000553442)
(0.000422261 0.000137153 0.000664091)
(0.0003483 4.19517e-05 0.00059161)
(0.000300839 3.2658e-05 0.000504448)
(0.000368145 -5.84139e-06 0.000606444)
(0.000315931 3.85517e-05 0.00052981)
(0.000345141 4.26011e-05 0.000567918)
(0.000418234 3.67401e-05 0.000683011)
(0.000325666 8.55571e-05 0.000559465)
(0.000324644 5.4996e-05 0.000545733)
(0.000411931 -6.03378e-05 0.000630115)
(0.000475202 0.000121221 0.000750202)
(0.00040695 -2.98003e-05 0.000688749)
(0.000519384 6.06769e-05 0.000849389)
(0.000396947 4.7784e-06 0.000665193)
(0.000417889 2.34508e-05 0.000688103)
(0.000527553 0.000154272 0.000767763)
(0.000421714 4.86923e-05 0.000673943)
(0.000480674 2.95394e-05 0.000766241)
(0.000515595 4.13371e-05 0.00084427)
(0.000522248 1.73519e-05 0.000837226)
(0.000416111 3.4296e-05 0.00066562)
(0.000468551 3.89233e-05 0.000743528)
(0.000418566 1.89986e-05 0.000664211)
(0.000475345 4.98149e-05 0.000752515)
(0.000548885 0.000170936 0.000701758)
(0.000540042 0.000190561 0.000631426)
(-2.10103e-05 -4.91085e-05 0.000160286)
(0.000565008 0.000146343 0.000787251)
(0.000491021 0.000131478 0.000679901)
(0.000621392 0.000227822 0.00067979)
(0.000574519 0.000218134 0.000610214)
(0.000612713 0.000212593 0.00068921)
(-2.52694e-05 -4.87801e-05 0.000159726)
(0.000547858 0.000170341 0.000727428)
(0.000561923 0.000201701 0.000665561)
(0.000610323 0.000223175 0.000698939)
(0.000558023 0.000163506 0.00077786)
(0.000624432 0.000170156 0.000920572)
(-2.29092e-05 -4.85639e-05 0.000156997)
(0.000466108 6.10778e-05 0.000739942)
(0.000432155 5.48042e-05 0.000713188)
(0.000464423 8.38869e-05 0.000714085)
(0.000526992 5.33197e-05 0.000800268)
(0.000463125 9.89588e-05 0.000709628)
(-2.53799e-05 -3.80705e-05 0.00016001)
(0.000575787 0.000229015 0.000673716)
(0.000597533 0.000116534 0.000847364)
(0.000685277 0.000213108 0.000937914)
(0.00065775 0.000217181 0.000783657)
(0.000723863 0.000255319 0.000659245)
(0.000785324 0.000292497 0.000657942)
(0.000646252 0.000186557 0.000842237)
(0.000605703 0.000172301 0.000757125)
(0.000637723 0.000259912 0.000629129)
(0.000671514 0.000239135 0.000685157)
(0.000649847 0.000206403 0.000768541)
(0.000714169 0.000244322 0.000815634)
(0.000745771 0.000285559 0.000789158)
(0.000665392 0.000206682 0.000847452)
(0.000687524 0.000167622 0.000949619)
(0.000562162 0.000131732 0.000794042)
(0.000632219 0.000138017 0.000984602)
(0.000511186 9.61921e-05 0.000763819)
(0.000592838 8.07281e-05 0.000897512)
(0.000738359 0.00024403 0.000935452)
(0.000611816 0.000193482 0.000780523)
(0.000655623 0.000172239 0.000934104)
(0.000547444 9.27284e-05 0.000881149)
(0.000563375 0.000146487 0.000803368)
(0.000742046 0.000135208 0.00104025)
(0.000642584 0.000141982 0.000998922)
(0.000592246 6.29972e-05 0.000950839)
(0.000589709 2.65221e-05 0.000939654)
(0.000476996 2.56318e-05 0.000792046)
(0.000467636 5.61307e-05 0.000740426)
(0.000605334 0.000118666 0.000876443)
(0.000621531 0.000130237 0.000969462)
(0.000579737 2.78526e-05 0.00090787)
(0.000598693 4.6328e-05 0.000941435)
(0.000604771 -2.58125e-05 0.00094123)
(0.000582004 5.19217e-05 0.000892827)
(0.000676926 0.00013445 0.000981986)
(-3.13556e-05 -4.3169e-05 0.000168399)
(0.000508331 3.2664e-06 0.000829813)
(0.000461461 5.51498e-05 0.000727589)
(0.000660256 0.000162153 0.000970712)
(0.000694228 0.000201556 0.00103573)
(0.000574737 3.7314e-06 0.00095707)
(0.00072313 7.74954e-05 0.00113805)
(0.000535044 5.57146e-05 0.000839729)
(0.000657219 4.35004e-05 0.00100814)
(0.000527353 7.75426e-05 0.000836396)
(0.000505506 8.02298e-06 0.000776375)
(0.000644749 -7.19949e-05 0.000958484)
(0.000707862 5.28317e-05 0.00112001)
(0.000706567 3.09182e-05 0.00111124)
(0.000340185 -4.86777e-05 0.000491966)
(0.000263662 1.8823e-05 0.000407772)
(0.000292619 1.17474e-05 0.000421364)
(0.000279043 8.27469e-06 0.000425486)
(0.00020129 3.60873e-05 0.000358926)
(0.0002641 2.97953e-05 0.000414123)
(0.000336069 8.79932e-06 0.000444321)
(0.000261741 4.70062e-05 0.00041768)
(0.000328355 4.09621e-05 0.000582073)
(0.000327438 5.60943e-05 0.00055329)
(-2.31218e-05 -4.18119e-05 0.000153567)
(-2.67908e-05 -4.38426e-05 0.000160466)
(-2.47901e-05 -4.051e-05 0.000148638)
(-2.62731e-05 -3.68289e-05 0.000149501)
(0.000363193 3.63586e-05 0.000573251)
(0.000327221 7.59827e-05 0.000526072)
(0.000385799 2.02608e-05 0.000525586)
(0.000340948 3.97646e-05 0.000473276)
(0.000369405 1.03793e-06 0.000491574)
(0.000361195 2.20067e-05 0.000468982)
(-2.97162e-05 -3.62179e-05 0.000154883)
(0.000378775 9.53407e-06 0.000497429)
(-3.50406e-05 -2.88869e-05 0.00016496)
(-3.01314e-05 -3.45986e-05 0.000155967)
(0.000376543 2.21736e-05 0.000225941)
(0.000366455 2.48178e-05 0.000255961)
(0.000354772 1.60624e-06 0.000252094)
(-3.34723e-05 -3.44403e-05 0.000153992)
(-2.65249e-05 -3.83235e-05 0.000164653)
(-2.59194e-05 -4.18654e-05 0.000161193)
(-3.23257e-05 -3.37626e-05 0.000175089)
(-3.38676e-05 -4.23024e-05 0.0001827)
(-2.97092e-05 -3.02861e-05 0.000166696)
(-2.85703e-05 -2.62318e-05 0.000159493)
(-3.46711e-05 -3.4481e-05 0.000159074)
(0.00033469 6.12484e-05 0.000102201)
(0.000386902 6.1203e-05 0.000152384)
(0.000321101 3.68591e-05 0.000109587)
(0.000310219 6.31932e-05 9.65104e-05)
(0.000330955 4.99613e-05 0.000119996)
(0.000379327 2.09459e-05 0.000154177)
(0.000365521 2.26516e-05 0.000203248)
(0.000400989 -1.00169e-05 0.000220115)
(0.000394036 1.39354e-05 0.000188716)
(0.000366251 1.51215e-05 0.000219659)
(0.000367643 3.81644e-05 0.000129412)
(0.000383989 8.72747e-06 0.000139439)
(0.000372358 5.74775e-06 0.000356696)
(0.000349614 1.76301e-05 0.000380364)
(0.00035762 8.3007e-06 0.000406107)
(0.00031556 1.65872e-05 0.000387035)
(0.000341963 8.4729e-06 0.000410831)
(0.000284925 2.9003e-05 0.000382657)
(0.000408157 1.78311e-05 0.000405578)
(0.000421001 -6.75282e-06 0.000353066)
(0.000414036 1.58386e-06 0.000333973)
(0.000358575 8.09269e-06 0.000334915)
(0.00035811 -2.25778e-06 0.00043177)
(0.000368418 1.65715e-06 0.000384871)
(0.000392365 3.28608e-05 0.000485049)
(0.000437301 -5.67611e-06 0.000276726)
(0.000425138 -2.3825e-05 0.00035421)
(0.000428382 -2.83441e-05 0.000295288)
(0.000442851 -1.18614e-05 0.000362016)
(0.000465062 -4.70856e-05 0.000272022)
(0.000412457 -1.2257e-05 0.000403652)
(0.000399059 -1.54353e-05 0.000453808)
(0.00043161 -4.24907e-05 0.000434309)
(0.000436591 8.21712e-06 0.000512809)
(0.000503591 -4.72563e-05 0.000447504)
(0.000481351 -6.39215e-05 0.000376398)
(0.000485512 -6.21593e-05 0.000301764)
(0.000478317 -3.52358e-05 0.00037815)
(0.000418148 -2.47992e-05 0.000215912)
(0.000412843 -2.04765e-05 0.000176806)
(0.000442219 -1.90626e-05 0.000218307)
(0.000284685 6.8387e-05 6.56624e-05)
(0.000301949 5.72437e-05 9.17862e-05)
(0.000250774 7.29394e-05 4.24709e-05)
(0.000285664 6.66317e-05 5.98604e-05)
(0.000328404 3.72704e-05 8.91748e-05)
(0.000376729 1.13446e-05 0.000115256)
(0.000312314 4.97918e-05 8.3967e-05)
(0.000184497 6.73305e-05 2.23242e-05)
(0.000275133 8.10769e-05 3.71977e-05)
(0.000100574 4.65469e-05 4.55203e-05)
(0.000119439 5.13396e-05 2.8866e-05)
(0.000220716 8.3535e-05 2.13558e-05)
(0.000246092 6.77508e-05 6.30926e-05)
(0.000227424 3.84611e-05 7.40482e-07)
(0.000274597 5.06647e-05 5.36546e-05)
(0.000334376 3.93142e-05 3.7193e-05)
(0.000222386 6.96433e-05 1.76198e-05)
(0.000217363 5.19194e-05 2.43882e-05)
(0.000300193 5.44141e-05 3.11672e-05)
(0.000537631 -8.80144e-05 0.00025597)
(0.000544117 -9.41686e-05 0.000404773)
(0.000524287 -9.52253e-05 0.000327491)
(0.000558327 -8.19557e-05 0.000409345)
(0.000429656 -8.20248e-06 0.0001598)
(0.000477857 -7.08487e-05 0.000222882)
(0.000440442 -3.10406e-05 0.000195163)
(0.000445781 -4.57046e-05 0.000206594)
(0.000403868 -1.71059e-06 0.000112284)
(0.000440533 -3.51851e-05 0.000158421)
(0.00052681 -8.70479e-05 0.000185088)
(0.000575342 -9.31043e-05 0.000244357)
(0.00059412 -0.000151371 0.000308015)
(0.000563488 -0.00010509 0.000227515)
(0.000526019 -9.90098e-05 0.000263185)
(0.000376319 2.11772e-05 6.14356e-05)
(0.000394425 3.19269e-07 7.17618e-05)
(0.000430181 -4.6391e-05 0.000129534)
(0.000401372 -2.15661e-06 9.18032e-05)
(0.000415569 -2.3821e-05 9.42675e-05)
(0.000322069 3.64612e-05 6.20753e-05)
(0.000374535 1.19062e-06 6.48963e-05)
(0.000552944 -8.12941e-05 0.000152641)
(0.000578877 -0.000129077 0.000179816)
(0.000614553 -0.000142491 0.000155364)
(0.000481882 -6.11266e-05 0.000143219)
(0.000443608 -2.75667e-05 0.000146038)
(0.00048756 -6.05781e-05 0.000119373)
(0.000292184 5.25018e-05 0.000499093)
(0.000310561 3.19869e-05 0.000514447)
(0.000347871 -1.86423e-05 0.00054349)
(0.000346128 1.06068e-05 0.000539368)
(0.000295337 6.96403e-05 0.000498515)
(0.00033015 6.16426e-06 0.000498821)
(0.000438404 -2.61526e-05 0.000652927)
(0.000309618 3.1211e-05 0.000508731)
(0.000341623 1.52462e-05 0.000527447)
(0.0003896 2.51331e-05 0.000600749)
(0.000381908 -3.42299e-06 0.000536843)
(0.000350965 1.81572e-05 0.000502991)
(0.000385996 1.99768e-05 0.000557289)
(0.000467612 -1.14788e-05 0.000667439)
(0.00047927 2.36132e-05 0.000790454)
(0.000358295 5.06116e-05 0.000574988)
(0.00040594 5.02619e-05 0.000657841)
(0.00039798 6.08245e-05 0.000669176)
(0.000424608 1.042e-05 0.000655161)
(0.000560379 -6.3395e-05 0.000793438)
(0.000516774 -9.80212e-05 0.000698163)
(0.000422487 7.64233e-05 0.000698968)
(0.0004425 -1.13694e-06 0.000662735)
(0.000393544 2.13535e-05 0.000570746)
(0.000440126 1.67924e-05 0.00063554)
(0.000431399 -1.77036e-05 0.000560176)
(0.000384738 -3.15336e-06 0.00049145)
(0.000431389 3.40297e-06 0.000568628)
(-3.62163e-05 -2.99674e-05 0.000160948)
(0.000508398 -7.71084e-05 0.000637378)
(0.000469301 -3.47916e-05 0.000551271)
(0.000517107 -7.14973e-07 0.00065851)
(0.000415213 -1.07432e-08 0.000611534)
(0.000479827 -2.66881e-05 0.000635417)
(0.000546151 -2.70078e-05 0.000726641)
(0.00049293 -6.72139e-05 0.000543151)
(0.000478727 -6.25115e-05 0.000456)
(0.000470492 -9.36495e-06 0.000558567)
(0.000629813 -2.98472e-05 0.000964238)
(0.000434456 2.72789e-05 0.000676481)
(-3.63643e-05 -2.57988e-05 0.000148759)
(0.000463504 4.60217e-06 0.000680918)
(0.000532655 7.76478e-06 0.000790551)
(0.000613879 -5.4982e-05 0.000880904)
(0.000617997 -9.56053e-05 0.000810673)
(0.000447583 -2.46026e-05 0.000596448)
(-4.14819e-05 -2.12402e-05 0.000160515)
(0.000548485 -0.000156534 0.000555215)
(0.000580032 -4.11015e-05 0.000734613)
(0.000602474 -5.87083e-05 0.000850439)
(0.000522189 -4.71895e-05 0.00070944)
(0.000585555 -2.25416e-05 0.000808441)
(0.000651299 -8.97541e-05 0.000810993)
(0.000571749 -5.49441e-05 0.000678177)
(0.000714817 -0.000173827 0.000834525)
(0.000620913 -0.000159751 0.000668481)
(0.000663697 -0.00010225 0.000811341)
(0.000477763 3.68842e-05 0.000754037)
(0.000481132 -1.42609e-05 0.000714258)
(0.000589909 -3.87259e-05 0.000857047)
(0.000642775 -2.81473e-05 0.000970299)
(0.000626115 -0.000114278 0.000890879)
(0.000570389 6.76959e-05 0.00088464)
(0.000664933 -7.67663e-05 0.00100441)
(0.00062324 0.000100352 0.000988629)
(0.000583847 -5.14352e-06 0.000892147)
(0.00056981 -3.00113e-05 0.000833998)
(0.000681136 -8.45621e-05 0.000965313)
(0.000556356 -5.80521e-05 0.000805282)
(0.00060189 -9.33475e-05 0.000789893)
(0.000690187 -0.000101021 0.000912641)
(0.000793771 -0.000162191 0.00100035)
(0.000606024 -0.000148103 0.000762332)
(0.000701661 -0.000226961 0.000714237)
(0.000738379 -0.00010418 0.000910236)
(0.000566298 -0.000107825 0.000473831)
(0.000482198 -0.000114743 0.000479948)
(0.000569925 -0.000138441 0.000490265)
(0.000559229 -4.41321e-05 0.000629713)
(0.000628766 -0.000112624 0.000659246)
(0.000609125 -0.000131319 0.000498576)
(0.00057507 -0.000149637 0.000432731)
(0.000625542 -0.000161302 0.00032343)
(0.000586111 -0.00011084 0.000422114)
(0.00067347 -0.000186019 0.000504073)
(0.000675365 -0.000231759 0.000369751)
(0.00067581 -0.000181408 0.000481098)
(0.000694511 -0.000187766 0.000666872)
(-4.41984e-05 -1.7072e-05 0.000158753)
(0.000647472 -0.000215747 0.000522187)
(0.00067248 -0.00015718 0.000658204)
(0.000797171 -0.00028346 0.000786126)
(0.000756594 -0.000295447 0.000573348)
(0.000737972 -0.000185986 0.000742341)
(-4.74869e-05 -1.23859e-05 0.000160059)
(0.000760094 -0.000282227 0.000572474)
(0.000793952 -0.000318057 0.00041947)
(-3.59896e-05 -3.43203e-05 0.000183188)
(0.000711764 -0.000199519 0.000564357)
(0.000627692 -0.000167191 0.000337776)
(-4.00402e-05 -2.70352e-05 0.000186432)
(0.000644907 -0.000160538 0.000285776)
(0.000628864 -0.00015612 0.000316731)
(-3.42782e-05 -3.41489e-05 0.000168489)
(0.000722587 -0.000175002 0.000246549)
(-3.74279e-05 -1.66984e-05 0.000169835)
(-4.0717e-05 -2.86158e-05 0.000183278)
(0.000715149 -0.000272457 0.000319885)
(0.000693054 -0.000223299 0.000276452)
(-4.18729e-05 -2.71937e-05 0.000182943)
(0.000682913 -0.000192482 0.000383287)
(0.000486725 -0.000318118 0.000218783)
(-4.54064e-05 -1.97728e-05 0.000178231)
(0.000540544 -0.000360137 0.000159657)
(0.00043593 -0.00030139 0.000155872)
(-4.44285e-05 -2.04227e-05 0.000182351)
(0.000351624 -0.000261435 0.000182803)
(0.000416352 -0.000310251 0.000169292)
(-4.83189e-05 -1.30425e-05 0.000191051)
(0.000307942 -0.000243296 0.00013759)
(0.000374188 -0.000249572 0.000234107)
(-3.71587e-05 -1.96053e-05 0.000164377)
(-3.36688e-05 -1.73866e-05 0.000151613)
(0.000415992 -0.000289846 0.000157204)
(-3.92959e-05 -2.37786e-05 0.000154072)
(-4.11516e-05 -1.81997e-05 0.000168356)
(0.000239182 -0.000188885 0.000156535)
(-3.9604e-05 -1.5827e-05 0.000152936)
(-4.35237e-05 -1.32087e-05 0.000166736)
(0.000303029 -0.000244247 0.000162282)
(-4.21198e-05 -1.2602e-05 0.000151099)
(0.000214191 -0.000174125 0.000131151)
(0.000130787 -0.000113409 9.99523e-05)
(0.000210334 -0.00017034 0.000154007)
(0.000148676 -0.000111569 0.000126312)
(0.000118164 -9.531e-05 0.000100954)
(0.000174176 -0.000124184 0.00013756)
(0.000125277 -0.000106438 9.64519e-05)
(0.000239698 -0.000162927 0.000191438)
(0.000278584 -0.000197684 0.000164864)
(0.000296134 -0.000269555 8.38533e-05)
(0.000438063 -0.000342736 0.000108581)
(0.000310421 -0.00023328 0.000140665)
(0.000153066 -0.000140114 7.54132e-05)
(0.000284513 -0.000246023 0.00011049)
(0.000206038 -0.000160022 0.000131793)
(0.000171166 -0.000144339 0.000126688)
(0.000208592 -0.000150848 0.000157597)
(0.000259678 -0.00019051 0.000134641)
(9.06121e-05 -0.000105682 4.35737e-05)
(0.000159138 -0.000123876 0.000108228)
(0.000120684 -0.000115895 7.94821e-05)
(5.16918e-05 -1.63855e-05 7.52421e-05)
(7.60996e-05 -4.64229e-05 8.82657e-05)
(6.80385e-05 -2.18938e-05 9.7429e-05)
(6.48142e-05 -8.30744e-06 9.96189e-05)
(6.34948e-05 2.06154e-05 0.000100711)
(3.98386e-05 4.90372e-06 7.00358e-05)
(-2.55167e-05 -3.87182e-05 0.000144919)
(4.49315e-05 6.28778e-06 7.82326e-05)
(4.03856e-05 -2.98121e-06 5.73349e-05)
(4.48995e-05 2.22706e-05 7.23461e-05)
(3.16863e-05 2.78052e-05 4.99608e-05)
(0.000107644 -8.70973e-05 0.000103194)
(-2.83325e-05 -3.54237e-05 0.000147269)
(6.52786e-05 -4.58649e-05 7.46862e-05)
(0.000110332 -7.16756e-05 0.000109945)
(8.80133e-05 -6.01598e-05 9.11377e-05)
(6.74414e-05 -3.54482e-05 8.63781e-05)