/*--------------------------------*- C++ -*----------------------------------*\
  =========                 |
  \\      /  F ield         | OpenFOAM: The Open Source CFD Toolbox
   \\    /   O peration     | Website:  https://openfoam.org
    \\  /    A nd           | Version:  7
     \\/     M anipulation  |
\*---------------------------------------------------------------------------*/
FoamFile
{
    version     2.0;
    format      ascii;
    class       volScalarField;
    location    "2.75";
    object      p;
}
// * * * * * * * * * * * * * * * * * * * * * * * * * * * * * * * * * * * * * //

dimensions      [0 2 -2 0 0 0 0];

internalField   nonuniform List<scalar> 
382612
(
0.0022343
0.00211874
0.00211217
0.00212512
0.00198112
0.00244044
0.00224223
0.00205093
0.00190983
0.0018284
0.00191643
0.00190551
0.00191189
0.00204638
0.00202892
0.00223029
0.00211557
0.00225596
0.00215153
0.0021912
0.00222713
0.00227464
0.00232261
0.00243168
0.00240082
0.00236455
0.00233423
0.00297664
0.00304212
0.00309578
0.00314021
0.0029192
0.00290469
0.00288765
0.00286211
0.00273238
0.00225341
0.00223449
0.0023391
0.00239396
0.0024447
0.00249149
0.0024764
0.00244888
0.00241433
0.00237539
0.0022891
0.00231032
0.00234221
0.00236958
0.00248202
0.00244343
0.00240147
0.00235827
0.00227891
0.00222726
0.00221218
0.00218669
0.00228906
0.00225801
0.0023553
0.00238958
0.00242895
0.00282001
0.00237849
0.00216127
0.00260044
0.00277691
0.00288315
0.00309765
0.00312869
0.0031365
0.00314166
0.00347033
0.00345562
0.00343563
0.00339908
0.00324773
0.00292137
0.00308761
0.00315176
0.00319286
0.00322153
0.00362909
0.00363384
0.00363558
0.00359218
0.00331218
0.00250866
0.00273086
0.00278751
0.00281571
0.00283449
0.00301313
0.00302605
0.0030397
0.00301317
0.0028031
0.00227723
0.00224514
0.00232606
0.00236228
0.00240118
0.00244506
0.00234171
0.00232491
0.00230675
0.0022982
0.00213199
0.00217091
0.0022068
0.00223528
0.00246333
0.00241674
0.00236918
0.00232447
0.00223501
0.00199821
0.00200915
0.00205249
0.00208515
0.0021091
0.00227211
0.0022211
0.00217155
0.00212459
0.00201309
0.00181936
0.00197122
0.00221913
0.00226602
0.00228855
0.00230053
0.00252116
0.00252567
0.00253155
0.00252609
0.00257156
0.00253291
0.00248097
0.00246367
0.00244644
0.00243322
0.00199312
0.00197538
0.00195382
0.00192824
0.00210632
0.00214635
0.00217727
0.00220232
0.00222255
0.0021951
0.00216765
0.00214589
0.00216847
0.00210023
0.00204336
0.00204596
0.00206133
0.00207594
0.0019834
0.00210083
0.00211771
0.00185437
0.00188653
0.00191703
0.00225209
0.00246624
0.00175871
0.00182125
0.00212192
0.00183477
0.00188776
0.00187166
0.00186409
0.00187284
0.00188494
0.00189089
0.00254978
0.00256314
0.002583
0.00259301
0.00250148
0.00183295
0.00183615
0.00183877
0.00184767
0.00185608
0.0023792
0.00240032
0.00243182
0.00245853
0.00243616
0.00207053
0.00224916
0.00229456
0.00230146
0.00230162
0.002304
0.00200893
0.0020098
0.00201352
0.0020259
0.00153512
0.00154987
0.00156608
0.00157413
0.00209996
0.00208952
0.00207633
0.00206533
0.00208901
0.00153131
0.00151008
0.00205118
0.00195296
0.0015272
0.00177456
0.00200917
0.00169608
0.00198418
0.00195043
0.00172401
0.00146724
0.00182083
0.00190022
0.00171056
0.00155292
0.00180854
0.00191016
0.00188129
0.00206001
0.00201156
0.00186952
0.00178123
0.00204118
0.00195004
0.0020229
0.00212074
0.00214603
0.00208727
0.00221605
0.00230314
0.00209475
0.00201769
0.00208251
0.00210126
0.00212781
0.00215742
0.00244458
0.00243466
0.00241637
0.00236288
0.0027446
0.00272457
0.00270669
0.00268889
0.00330823
0.00329268
0.00327635
0.00323621
0.00303759
0.00281028
0.00271142
0.00276398
0.00279301
0.00280441
0.00281605
0.00240525
0.00240372
0.00239216
0.00237069
0.00238757
0.00300043
0.0029838
0.00299994
0.00301683
0.00302986
0.00291634
0.00289777
0.00286913
0.00284526
0.00285569
0.00322974
0.00320934
0.00321325
0.00323112
0.00324602
0.00353733
0.00353523
0.00353068
0.00351149
0.00339872
0.00328721
0.00346346
0.00350953
0.00353136
0.00354442
0.0040901
0.00409353
0.00409661
0.00405706
0.00376148
0.00283358
0.00291596
0.00294202
0.00297121
0.00299615
0.00302262
0.00300887
0.00298988
0.0029502
0.00276537
0.00244918
0.00258723
0.00263999
0.00267776
0.00270346
0.00313773
0.00315529
0.00318052
0.00317378
0.00297414
0.00192271
0.00198772
0.00200928
0.00203935
0.00206672
0.0023876
0.00245712
0.00248274
0.00250134
0.00251406
0.00221096
0.00218488
0.0021512
0.00212202
0.00204641
0.00268811
0.00279755
0.00279084
0.00276012
0.00273593
0.00182207
0.00180413
0.00178101
0.00176494
0.00173756
0.00245577
0.00245571
0.0024265
0.00239248
0.00236894
0.00167698
0.0016735
0.0016689
0.00167821
0.00174559
0.00173981
0.00170958
0.00171247
0.00172796
0.00174113
0.00215741
0.00218022
0.00221187
0.00224708
0.00230309
0.00174085
0.00164847
0.0016385
0.00164533
0.00165032
0.00218054
0.00219623
0.00221888
0.00224003
0.00222992
0.00197053
0.00208393
0.00210358
0.0021097
0.00210948
0.00210936
0.00192091
0.00192024
0.00192043
0.00192789
0.0016618
0.00166368
0.00166951
0.00167215
0.00200262
0.00200095
0.00199759
0.00199381
0.00199687
0.00167229
0.00188391
0.00183576
0.00182998
0.00183343
0.0018351
0.00172326
0.00181508
0.0020663
0.00201232
0.00198887
0.00197443
0.00196432
0.00186922
0.00187194
0.00187399
0.00187203
0.00204578
0.0020438
0.0020398
0.00203711
0.00204573
0.00204695
0.00204879
0.00204886
0.00189871
0.00190403
0.00190697
0.00190679
0.00203449
0.00204302
0.00205296
0.00206292
0.0020949
0.00190128
0.00204933
0.00207426
0.00198609
0.00165627
0.00190982
0.00193318
0.00168086
0.00165314
0.0019386
0.00193482
0.00158744
0.00210855
0.00214892
0.00206695
0.00197305
0.00185879
0.00204237
0.00172772
0.00173754
0.00176726
0.0019172
0.00204392
0.00198314
0.00196778
0.00196373
0.00196232
0.00192192
0.00191833
0.00191276
0.0019133
0.00194641
0.00219028
0.00217546
0.00216016
0.00215375
0.0021532
0.00215695
0.00216046
0.00216818
0.00218559
0.00223344
0.00207495
0.00207788
0.00207526
0.00207398
0.00207079
0.00206899
0.00205339
0.00205101
0.00204815
0.00204878
0.00186365
0.00186814
0.0018706
0.00187058
0.00198745
0.00198939
0.00199154
0.00199347
0.00200513
0.00184874
0.00200003
0.00197379
0.00196908
0.00196554
0.00196181
0.0019144
0.00195304
0.00194557
0.00191919
0.0019207
0.0019256
0.001928
0.00205689
0.00205563
0.00205277
0.00205165
0.00207108
0.00219524
0.00219933
0.00219181
0.00218672
0.00218498
0.00210861
0.00210836
0.00210941
0.00211896
0.00216109
0.00218147
0.0021574
0.00215033
0.00214566
0.00214238
0.00202656
0.00202451
0.00202171
0.00202081
0.00207039
0.00206689
0.00206151
0.00205783
0.00205863
0.00206159
0.00206531
0.002068
0.002042
0.00204216
0.00204355
0.00204358
0.00216702
0.002162
0.00215482
0.00215069
0.002173
0.00206094
0.00207516
0.00210029
0.00212851
0.00193822
0.0020174
0.00205272
0.00194244
0.001743
0.00195555
0.00199601
0.00179982
0.00219029
0.00214745
0.0021024
0.00212249
0.00202865
0.0020713
0.00209149
0.00204827
0.00213162
0.0020552
0.00203361
0.00200071
0.00199752
0.00200139
0.00200422
0.0021184
0.00211583
0.00211122
0.00210607
0.00211012
0.00220886
0.00220785
0.00220464
0.00220327
0.00220284
0.00216688
0.00216779
0.00216844
0.0021702
0.0021856
0.00225196
0.00224373
0.00224258
0.00224168
0.0022411
0.00224727
0.00224102
0.00223239
0.00222435
0.00223011
0.00213783
0.00211462
0.00211051
0.00210706
0.00210304
0.00220895
0.00220259
0.00219437
0.00218579
0.00219086
0.00211711
0.00208083
0.00208014
0.00208376
0.00208441
0.00208416
0.0020818
0.00207865
0.00207481
0.00207818
0.0021027
0.00210405
0.00210648
0.00210859
0.00208198
0.00208168
0.00208144
0.00207984
0.00207851
0.0021113
0.0021226
0.00209734
0.00211644
0.0021383
0.00198318
0.00203371
0.00210239
0.00207192
0.00213668
0.00210829
0.00203722
0.00201885
0.00187215
0.00195635
0.00208789
0.00212557
0.00204982
0.0020468
0.00203913
0.00200266
0.00207945
0.00211872
0.00213588
0.00207503
0.00199773
0.00199801
0.00200291
0.00200631
0.00200815
0.00215341
0.00215467
0.00215826
0.00216629
0.002175
0.00222413
0.00222407
0.00222009
0.00221829
0.00221772
0.00216876
0.002165
0.0021592
0.00215315
0.00216102
0.00225982
0.00227362
0.00227705
0.00227773
0.00227805
0.00233933
0.00233879
0.00233922
0.00233829
0.00231897
0.00224507
0.00224309
0.00224868
0.00225561
0.00226024
0.00235005
0.00234969
0.00234871
0.002344
0.00232861
0.00228961
0.00229741
0.00230213
0.0023054
0.00230731
0.00217756
0.00217483
0.00217056
0.00216333
0.00214678
0.00210271
0.00209028
0.00210091
0.00210468
0.00210411
0.00210222
0.0021143
0.00211184
0.00210832
0.00210498
0.00215602
0.00215911
0.00216432
0.00217092
0.00212209
0.00211949
0.00211452
0.00210548
0.00208648
0.00214334
0.00222505
0.00224685
0.00225464
0.00226196
0.00226822
0.00228598
0.0022784
0.00227142
0.0022655
0.00224307
0.00214059
0.00209712
0.00212043
0.00212757
0.00213296
0.00213933
0.00219043
0.00217901
0.00216629
0.00215776
0.0021693
0.00218405
0.00219551
0.00220342
0.0021786
0.0021672
0.00215538
0.00213826
0.00208373
0.00213605
0.00224828
0.00214976
0.00206906
0.00210887
0.00229021
0.00218121
0.0020676
0.00209134
0.00220218
0.00213013
0.00210306
0.00212338
0.00203196
0.00204086
0.00216043
0.00231133
0.00223718
0.00214413
0.00209138
0.00216624
0.00187977
0.0019699
0.00192477
0.00177305
0.00156192
0.00180022
0.00183669
0.00164675
0.00170298
0.00188607
0.00193575
0.00177296
0.00176362
0.0019577
0.00192505
0.00167661
0.00190568
0.00189727
0.00200037
0.00199329
0.00211654
0.0020563
0.00203906
0.00203388
0.00203199
0.00201324
0.00201583
0.00202252
0.00203728
0.00205237
0.00212069
0.00211039
0.0020992
0.00209333
0.00209065
0.00194366
0.00194315
0.00194134
0.00193716
0.00193353
0.00197533
0.00194605
0.00193422
0.0019301
0.00192881
0.00199365
0.00199445
0.00199705
0.00200351
0.00201366
0.00205313
0.00204549
0.00204284
0.00204377
0.00204471
0.00208744
0.00208573
0.00208119
0.00207385
0.00206942
0.00213452
0.00214772
0.0021588
0.00216344
0.0021652
0.00227261
0.00227098
0.00226967
0.00226879
0.00226164
0.00231913
0.00233058
0.00233369
0.00233558
0.00233671
0.00240573
0.00240291
0.00239885
0.00239258
0.00237585
0.00243034
0.00245538
0.002465
0.00246954
0.00247205
0.00235968
0.00235299
0.0023436
0.00233512
0.00232861
0.00235888
0.0023882
0.00239894
0.00240307
0.00240489
0.00234161
0.00234076
0.00233765
0.00233026
0.00230799
0.00241436
0.00246549
0.00248016
0.00248187
0.00248049
0.00223175
0.00221973
0.00220577
0.00219511
0.00220212
0.00222475
0.00224123
0.00225604
0.00225567
0.0022398
0.00222281
0.00220219
0.00215061
0.00222746
0.00225181
0.00226356
0.00227819
0.00229074
0.00239039
0.00238692
0.0023804
0.00237066
0.00234838
0.00234924
0.00241499
0.00243388
0.00244514
0.00245466
0.00229497
0.00227747
0.00225862
0.00224635
0.0021791
0.00219919
0.0022196
0.00224025
0.00223113
0.00221231
0.00219251
0.00216914
0.00221243
0.00222679
0.00224252
0.00225631
0.00246306
0.00246281
0.00245944
0.0024413
0.00237267
0.00217874
0.00211368
0.0021508
0.00221576
0.00229639
0.0021748
0.00216379
0.0023011
0.00222187
0.00214831
0.0021287
0.0021906
0.00226915
0.00213568
0.00222323
0.00239642
0.0023401
0.00215019
0.00218285
0.00230783
0.00203505
0.00202389
0.00202803
0.00203162
0.00157104
0.00182898
0.00184724
0.00159109
0.0016884
0.00192825
0.00196452
0.00184078
0.00208101
0.00219406
0.00211526
0.00208482
0.00202821
0.00196169
0.00187275
0.00176501
0.00162191
0.00145783
0.00138138
0.00139535
0.0014031
0.00140413
0.00140284
0.00163059
0.00162932
0.00163056
0.00164003
0.00165368
0.0017073
0.00172188
0.0017332
0.00173767
0.00173902
0.00190775
0.00190552
0.00190414
0.00190657
0.00190379
0.00193772
0.00197657
0.0019774
0.001974
0.00197217
0.00193733
0.00193677
0.00193341
0.00192374
0.00189462
0.0020842
0.00209058
0.00209047
0.0020924
0.00209472
0.00218475
0.00218566
0.00218773
0.00218751
0.00215796
0.00212521
0.00215178
0.00216261
0.0021672
0.0021684
0.00226483
0.00226041
0.00225517
0.00225214
0.00225125
0.0022847
0.00230819
0.00232176
0.00232868
0.00233142
0.00250215
0.00249906
0.00249674
0.00249422
0.00246875
0.00254565
0.00256759
0.00257226
0.00257581
0.00257903
0.00252127
0.00251395
0.00250349
0.0024913
0.00246778
0.00250637
0.00254334
0.00255468
0.00255889
0.00256031
0.00238461
0.00237394
0.00236034
0.0023508
0.00235626
0.00248198
0.00250624
0.00251402
0.00252127
0.00252732
0.00254106
0.00253882
0.00253388
0.00252074
0.00248231
0.00257412
0.00258727
0.00259512
0.00260463
0.00261233
0.00250251
0.0024981
0.002492
0.00248461
0.00246906
0.00231726
0.00234074
0.00235415
0.00236511
0.00237274
0.00234095
0.0023355
0.0023294
0.00232154
0.002299
0.0021911
0.00210817
0.00211683
0.00212745
0.002138
0.00214893
0.00221631
0.00220597
0.00219462
0.00218955
0.00223517
0.00224545
0.00225915
0.00227052
0.00223148
0.002216
0.00220033
0.00218176
0.00214819
0.00222331
0.00221789
0.00215308
0.00211374
0.00218207
0.00220457
0.00209804
0.00217624
0.00233318
0.00234823
0.00214607
0.00208523
0.00211096
0.00222156
0.00209322
0.00212036
0.00228474
0.00202462
0.0020263
0.0020507
0.00208661
0.00213903
0.00208222
0.00208963
0.00219563
0.00199985
0.00201887
0.00213113
0.0022416
0.00210264
0.00226671
0.00236271
0.00239807
0.00232805
0.0021799
0.00200614
0.00182219
0.00162086
0.00143711
0.00124095
0.00106637
0.00100912
0.00102392
0.00102562
0.00102102
0.00101597
0.0012079
0.0012071
0.00120873
0.00121591
0.00122068
0.00138907
0.00141109
0.00142032
0.00142006
0.00141679
0.00161858
0.0016168
0.00161662
0.00162095
0.0016188
0.00178125
0.00177732
0.00177461
0.00177524
0.0017763
0.00181584
0.0018127
0.00180888
0.00180679
0.00179788
0.00200878
0.00200621
0.00200695
0.00201094
0.00201447
0.00207518
0.00207055
0.00206472
0.00205894
0.00204655
0.0022368
0.00223663
0.00224149
0.00224802
0.00225292
0.00239168
0.0023894
0.00238301
0.00236913
0.00234325
0.00243133
0.00244261
0.0024515
0.00246016
0.0024665
0.00259608
0.00259297
0.00258798
0.00257658
0.00253695
0.00258196
0.0026083
0.00261883
0.00262547
0.00263041
0.00263104
0.00262549
0.00261716
0.00260582
0.00258729
0.00251788
0.00254352
0.0025579
0.00257128
0.00258141
0.00268512
0.00268021
0.00267446
0.00266614
0.00263649
0.00257602
0.00261745
0.00257754
0.00247752
0.00252985
0.00256619
0.00257325
0.00257569
0.00257813
0.0025444
0.00254013
0.00253183
0.00251812
0.00249594
0.00260691
0.0026259
0.00263282
0.00263849
0.00264323
0.00267988
0.00267687
0.00267249
0.00266376
0.00263779
0.00258686
0.00261181
0.00261972
0.00262511
0.00262889
0.00244949
0.00244206
0.00243293
0.00242687
0.00242695
0.00241918
0.0024395
0.00244676
0.00245053
0.00245284
0.00232265
0.00232152
0.00231979
0.00231552
0.00230635
0.00214853
0.00208262
0.00209968
0.00211036
0.00211922
0.00212826
0.00216959
0.00216329
0.00215509
0.0021503
0.00213625
0.00214101
0.00214844
0.00215427
0.00212801
0.00212592
0.0021229
0.00211538
0.00209994
0.00214283
0.00219696
0.00213485
0.00210718
0.00216964
0.00224355
0.00232884
0.00233126
0.00229478
0.00230816
0.00231489
0.00231706
0.00231802
0.00220605
0.0022042
0.00220115
0.00220034
0.00221962
0.00215805
0.00217691
0.00217814
0.00217393
0.0021696
0.00213447
0.00213618
0.00213859
0.00213893
0.00213877
0.00205788
0.00201924
0.00201812
0.00201849
0.00201811
0.0020186
0.00206096
0.00206302
0.00206415
0.00206239
0.00210169
0.00210175
0.00210549
0.00210883
0.00207353
0.00207276
0.00207185
0.00206877
0.00206552
0.00211836
0.00218233
0.00208616
0.00205552
0.002087
0.00207159
0.00205041
0.00203104
0.00202052
0.00200337
0.00201487
0.00199884
0.00196314
0.00186843
0.00195364
0.00200896
0.00203541
0.00197599
0.001989
0.0019997
0.0020123
0.00201533
0.00201192
0.00203287
0.00201361
0.00204439
0.00203343
0.00197339
0.00194258
0.00172463
0.00191446
0.00197162
0.00189455
0.00208115
0.00202534
0.00196193
0.00194664
0.00187316
0.00192855
0.00191272
0.00186123
0.00135865
0.00175546
0.00172161
0.00128064
0.00121624
0.0017033
0.00178563
0.00152717
0.00142828
0.00176187
0.00170797
0.00133304
0.00156431
0.00181774
0.00189334
0.00163736
0.00148808
0.00180993
0.00177579
0.00139293
0.00132121
0.00174187
0.00181495
0.00146797
0.00142433
0.00179994
0.00187144
0.00151709
0.00152337
0.00158738
0.0015186
0.00156155
0.00149437
0.00148722
0.00148913
0.00148827
0.00160189
0.00159979
0.00159705
0.00160445
0.00166386
0.00212414
0.00201903
0.00198808
0.00197009
0.00195893
0.00164507
0.00164235
0.00163923
0.00165261
0.00175334
0.00209035
0.00205901
0.00203249
0.00201516
0.00200517
0.00185089
0.00183824
0.00182424
0.00182497
0.00189695
0.00173086
0.00160623
0.00146739
0.00151396
0.00145682
0.00144875
0.00144935
0.00144764
0.00166725
0.00166894
0.00166929
0.00167232
0.00171595
0.00202198
0.00195683
0.00193191
0.00192147
0.00191652
0.00173909
0.00173653
0.00173349
0.00174235
0.00181354
0.00207405
0.00205894
0.00203973
0.0020279
0.00202119
0.00183354
0.00182859
0.00182399
0.00183602
0.00193533
0.00182227
0.001755
0.00167527
0.00169882
0.00169359
0.00163323
0.00162285
0.00162382
0.00162571
0.00185548
0.00186034
0.00187022
0.00188901
0.00190672
0.00194205
0.00191645
0.00190012
0.00189292
0.00188997
0.00181638
0.00181457
0.00181216
0.00181551
0.00184963
0.00191489
0.00186309
0.00185724
0.00185926
0.00186101
0.00187586
0.00200313
0.00193137
0.00187795
0.00172131
0.00167747
0.00164881
0.00164777
0.001651
0.00165289
0.0018984
0.00189967
0.001907
0.00192438
0.00194083
0.00190811
0.00189293
0.00188331
0.00188153
0.00188273
0.00171684
0.00171632
0.00171323
0.00170606
0.00170331
0.00170243
0.00167338
0.00165999
0.00165646
0.00165612
0.00140235
0.00140224
0.00139971
0.00139171
0.00137844
0.00130972
0.00130828
0.00129975
0.0012957
0.00129394
0.00121568
0.00121659
0.00121934
0.00122884
0.00124416
0.00104786
0.00104758
0.00104089
0.00103948
0.00104034
0.00101299
0.0010193
0.00102836
0.00103593
0.00102983
0.000848051
0.000814699
0.000807256
0.000805171
0.00080427
0.000822494
0.000821805
0.000823034
0.000829366
0.00085694
0.00105271
0.00105598
0.00105725
0.0010511
0.0010431
0.00118412
0.00118282
0.00118282
0.00118906
0.00120762
0.00141046
0.00139737
0.00139585
0.00139823
0.00140085
0.00162977
0.00163445
0.00163715
0.00163007
0.00160141
0.00184917
0.00186455
0.00186062
0.00185547
0.0018533
0.00190452
0.00190919
0.00191064
0.0019005
0.00187117
0.00208806
0.00209245
0.00209044
0.00209016
0.0020922
0.00234602
0.00234471
0.00234371
0.00233793
0.00230368
0.00230897
0.00233671
0.00234999
0.00235538
0.00235658
0.0024387
0.00243058
0.0024216
0.00241642
0.00242514
0.00245958
0.00247843
0.00248462
0.00248787
0.00249026
0.00256078
0.00255838
0.00255514
0.00254916
0.00252979
0.00246449
0.00247077
0.00247718
0.00248222
0.00248565
0.00255197
0.00254736
0.00254204
0.00253887
0.0025325
0.00252013
0.00251692
0.00251911
0.00252387
0.00252804
0.00245108
0.00244986
0.0024476
0.00244346
0.00244688
0.00235188
0.00234726
0.00234982
0.00235164
0.00235216
0.00235251
0.00235491
0.00236135
0.00237652
0.00240287
0.00233317
0.00231109
0.002297
0.00228997
0.00228643
0.00220016
0.00220228
0.00220746
0.00222041
0.00225119
0.00219318
0.0021627
0.00215863
0.00215827
0.00215907
0.00209826
0.0020991
0.00210095
0.00210482
0.00212305
0.00200069
0.00196805
0.00197447
0.00197703
0.00197965
0.00198102
0.00204282
0.00204648
0.0020499
0.00204278
0.00207893
0.00207778
0.00207505
0.00207296
0.00201496
0.00201448
0.00201467
0.00201828
0.00203513
0.00207492
0.00205031
0.00202319
0.00203287
0.00206452
0.00222911
0.0020844
0.00201616
0.00202738
0.00190742
0.00197962
0.00196015
0.00187908
0.00186693
0.00192487
0.00197565
0.00195928
0.00196044
0.00198821
0.00200086
0.00196933
0.00192256
0.00196633
0.00200557
0.00199498
0.00195984
0.00196635
0.00195768
0.0019549
0.00191023
0.00178551
0.00173607
0.00172283
0.00174583
0.00179042
0.00181643
0.00178408
0.00167486
0.00149227
0.00126875
0.00103812
0.000848622
0.000697503
0.000591758
0.000644144
0.000622206
0.000617837
0.000617431
0.000617408
0.000751169
0.000760811
0.000770974
0.000776467
0.000775323
0.000909971
0.000889562
0.000878056
0.00087123
0.000867595
0.000993963
0.00100382
0.00101383
0.00101463
0.000998855
0.00106362
0.00101865
0.00101454
0.00102051
0.00102632
0.00131
0.00131989
0.00132929
0.00132506
0.00129752
0.00143472
0.00142777
0.0014271
0.00143032
0.00143277
0.00167326
0.00166926
0.00166456
0.00166321
0.00167458
0.00172842
0.00174711
0.00174733
0.0017458
0.00174465
0.00182401
0.0018299
0.00183373
0.00182495
0.00178897
0.00195058
0.00193787
0.001942
0.00195296
0.00196211
0.00219514
0.00219044
0.00218605
0.00218296
0.00218243
0.00216783
0.00218688
0.00219277
0.00219383
0.0021943
0.00216943
0.00217044
0.0021693
0.00216148
0.00214962
0.00233374
0.00232574
0.00232398
0.00233039
0.00233769
0.00244439
0.00244016
0.0024363
0.00243775
0.00244467
0.00232718
0.00232877
0.00233058
0.00233097
0.00232997
0.00238156
0.00238223
0.0023827
0.00238231
0.00237739
0.00229118
0.00226073
0.00225675
0.00225799
0.0022594
0.00241542
0.00241663
0.00242173
0.00243383
0.00244361
0.00228142
0.00227491
0.00227432
0.00227269
0.00227116
0.00220793
0.00220845
0.00220758
0.00220481
0.00221542
0.0021255
0.00211404
0.0021182
0.00212238
0.00212464
0.00210225
0.00209993
0.00209602
0.00208851
0.00208042
0.00191451
0.00192563
0.00193786
0.00194561
0.00194969
0.00204557
0.00204197
0.00203615
0.00202316
0.00198759
0.002142
0.00213117
0.00212124
0.00211423
0.00211034
0.00201139
0.0020203
0.00202931
0.00202834
0.00196666
0.00196706
0.00196883
0.00196961
0.00197526
0.0019733
0.00197003
0.00196772
0.00197668
0.00198015
0.00197355
0.00196622
0.00217238
0.00217503
0.00218045
0.00218288
0.002156
0.00193926
0.00198127
0.00203009
0.00196366
0.00190803
0.00200845
0.00200006
0.00190686
0.00187702
0.00200946
0.00202049
0.00202099
0.00201735
0.00201507
0.00189491
0.00189264
0.0018875
0.00188123
0.00199366
0.00199562
0.00198671
0.00198049
0.00184075
0.00184075
0.00183885
0.00183126
0.00182821
0.00210159
0.00202662
0.00201059
0.00200006
0.00199418
0.00199753
0.00199897
0.00200217
0.00201163
0.00213642
0.00189798
0.00197931
0.00196039
0.00195823
0.00195798
0.00195621
0.00195161
0.00195916
0.00196758
0.00196524
0.00193593
0.00194716
0.00194707
0.00194687
0.00195842
0.0019594
0.00195989
0.00195816
0.00194245
0.00184317
0.0018555
0.00198424
0.00200719
0.0019742
0.00188678
0.00195725
0.0019583
0.0018733
0.0021104
0.00202326
0.00199382
0.00208051
0.00205112
0.00198697
0.00199437
0.00196099
0.00187084
0.00180034
0.00171617
0.00159672
0.0015157
0.00144677
0.00140882
0.00139475
0.00138281
0.00133608
0.00124548
0.00110247
0.000953632
0.000809658
0.000704046
0.00060284
0.000657716
0.000662461
0.00065783
0.000648831
0.000641401
0.000584953
0.000582699
0.000581337
0.000586225
0.000620225
0.000814831
0.000835732
0.000831998
0.000820117
0.0008089
0.000800264
0.000798579
0.000796492
0.000797211
0.000810994
0.00100438
0.000977211
0.000971228
0.000970785
0.000971312
0.00125404
0.0012624
0.00127013
0.00126684
0.00123596
0.00133692
0.00130453
0.0013041
0.00131302
0.00132131
0.00160982
0.0016072
0.00160432
0.00160412
0.00161006
0.00158168
0.00159
0.00159174
0.00159044
0.00158965
0.00160693
0.00161392
0.00161897
0.00161531
0.00160319
0.00186742
0.00184029
0.00183598
0.00184321
0.00185227
0.00205119
0.00204948
0.00204921
0.00205706
0.00208231
0.0019423
0.00194555
0.00194613
0.00194354
0.00194106
0.00192232
0.00192552
0.00192807
0.00192965
0.00194832
0.00219196
0.00217331
0.0021594
0.00215731
0.00216019
0.00223597
0.00223501
0.00223897
0.00225732
0.00228599
0.0023891
0.00234852
0.00233147
0.00232691
0.00232683
0.00210717
0.00210875
0.00210764
0.00210343
0.0021148
0.00213476
0.00212432
0.0021288
0.00213113
0.00213133
0.00212049
0.00212036
0.00212009
0.00212118
0.00213624
0.00210568
0.00210014
0.00209921
0.00209821
0.00209769
0.00209936
0.00210031
0.00210179
0.00210213
0.00209629
0.00203509
0.00203715
0.00203694
0.00203569
0.00203466
0.00195831
0.00195294
0.0019436
0.00192879
0.00191121
0.00187786
0.00186987
0.00187491
0.00188048
0.00188406
0.00204165
0.00204936
0.00206174
0.0020757
0.0020792
0.00192808
0.00196163
0.00195879
0.00195058
0.00194326
0.00192379
0.00192568
0.00192597
0.00192367
0.00191785
0.00201691
0.00199983
0.00199289
0.00198761
0.00198465
0.00191508
0.00175977
0.00202548
0.00198022
0.0017798
0.00218432
0.00180124
0.00185298
0.00234356
0.00185922
0.00184921
0.0025435
0.0017958
0.00213357
0.00194683
0.00238962
0.00192185
0.00184759
0.00165315
0.00149211
0.00130954
0.00119961
0.00111214
0.00104928
0.000985282
0.000902903
0.000791742
0.000690165
0.000584872
0.000515911
0.000451825
0.000478033
0.000471075
0.000465953
0.000460777
0.000456692
0.000431429
0.000439981
0.000448539
0.000454699
0.000465329
0.000633063
0.000599726
0.000584128
0.000579551
0.00057903
0.000745421
0.00075061
0.000759821
0.000777183
0.000814162
0.000860511
0.000838942
0.00083353
0.000824759
0.000815735
0.00108126
0.00108011
0.00108446
0.00110651
0.00115784
0.00138521
0.00133721
0.0013182
0.00131112
0.00130839
0.00137481
0.00138233
0.00138942
0.00139428
0.0014214
0.00173518
0.00169277
0.00167364
0.00167193
0.00167541
0.00186339
0.00186459
0.00187028
0.0018876
0.00192813
0.00167496
0.00164661
0.00164255
0.00164201
0.00164155
0.00180395
0.00180494
0.00180718
0.00181125
0.00182642
0.00192528
0.00191525
0.00191018
0.00190656
0.00190424
0.00199677
0.00200231
0.00201013
0.00201373
0.00200141
0.00201485
0.0020234
0.00201858
0.00200984
0.00200296
0.00208589
0.00209437
0.00210646
0.00211408
0.00210059
0.00203304
0.00202551
0.00202335
0.00202277
0.0020227
0.00194422
0.00194379
0.00194252
0.0019419
0.00194709
0.0020073
0.00202147
0.00202618
0.00202918
0.00203151
0.0020159
0.00201698
0.00201894
0.00201826
0.00199781
0.00189903
0.00188158
0.00188087
0.00188454
0.0018874
0.00207227
0.00208313
0.00209942
0.00211051
0.00208102
0.00186794
0.00180582
0.00180394
0.00181347
0.00182061
0.00189524
0.00189344
0.00189014
0.00189003
0.00191419
0.00185564
0.00182091
0.00181501
0.0018138
0.00181233
0.00193952
0.0019482
0.0019607
0.00197243
0.00197349
0.00183067
0.00188217
0.00187603
0.00186297
0.00185241
0.00191015
0.00192029
0.00193675
0.0019477
0.00188973
0.00180517
0.00180289
0.00180619
0.00180653
0.00180531
0.00198338
0.00199037
0.0019972
0.00199708
0.00197748
0.00197738
0.00188557
0.00181805
0.00198904
0.00198983
0.00182567
0.00185124
0.00185203
0.00184767
0.00184301
0.00195804
0.00196374
0.00196937
0.00197514
0.00199039
0.00186136
0.00181795
0.00195615
0.00193583
0.00179881
0.00186758
0.00195252
0.0019459
0.00180537
0.0017976
0.00194269
0.00198198
0.00195784
0.00221461
0.00207889
0.00205704
0.00214984
0.00212923
0.00204254
0.00196468
0.00188762
0.00191206
0.00198402
0.00198237
0.00194221
0.00195069
0.00199482
0.00197889
0.00191682
0.00196246
0.00198873
0.00202158
0.0020553
0.00208486
0.00202611
0.00203885
0.00208965
0.00198286
0.00201181
0.00200397
0.00198764
0.00198737
0.00199625
0.00200139
0.0019964
0.00199767
0.00197879
0.00193179
0.00188376
0.00171488
0.0018681
0.00188932
0.00174859
0.00177725
0.00190811
0.00191026
0.0019425
0.00189736
0.00188084
0.00190276
0.00185466
0.00179777
0.00188374
0.00188436
0.00191729
0.00196439
0.00192065
0.00192417
0.00193757
0.00203133
0.00196499
0.00195008
0.00203994
0.00233247
0.00203521
0.00195677
0.00205342
0.00204566
0.00203145
0.0018502
0.00152358
0.00110571
0.000743169
0.000643686
0.000727637
0.00111495
0.00136771
0.00176597
0.00199497
0.00203588
0.00205493
0.00206807
0.00239211
0.00240772
0.0024236
0.00242316
0.00233673
0.00169261
0.00181919
0.00183739
0.00183622
0.0018299
0.00249308
0.00251696
0.00254553
0.00254899
0.00245372
0.00175851
0.00177757
0.00178191
0.0017843
0.00178313
0.00256031
0.00258661
0.00262303
0.00264808
0.00256054
0.00251105
0.00270873
0.00273385
0.00272447
0.00271232
0.00191161
0.00191448
0.00191167
0.00189314
0.00179557
0.00145271
0.00159058
0.00159933
0.00159884
0.00159781
0.00210527
0.00211693
0.00212978
0.00213688
0.00214528
0.00154128
0.00153835
0.00154198
0.00154425
0.00154152
0.00146445
0.00146572
0.00146728
0.00147048
0.00145353
0.00205866
0.00197783
0.00194932
0.00193214
0.00192005
0.00182989
0.00184569
0.00187153
0.00190662
0.0019184
0.00190503
0.0018098
0.00178434
0.0017733
0.00176666
0.00173749
0.001747
0.00176463
0.00179429
0.00184507
0.00171078
0.00162662
0.00161396
0.001618
0.00162281
0.00143851
0.0013901
0.00138409
0.00138424
0.0013825
0.00149886
0.0014977
0.00149469
0.00149688
0.00153468
0.00184101
0.00180997
0.0017868
0.00177328
0.00176676
0.00170846
0.0017087
0.00171285
0.00173603
0.0018392
0.00172156
0.00171614
0.00171846
0.00171985
0.00171996
0.0017238
0.00172152
0.00171711
0.00171304
0.00172224
0.00177252
0.00168664
0.00163007
0.0014666
0.00140582
0.00139365
0.0013983
0.00140235
0.00140387
0.00170545
0.00170905
0.00171692
0.00173534
0.00175877
0.00176328
0.00173265
0.00171421
0.00170695
0.00170409
0.00143218
0.00143248
0.00143115
0.00142521
0.00141351
0.00139162
0.00138445
0.00137411
0.00136771
0.00136392
0.00122967
0.00123356
0.00124219
0.001258
0.00126298
0.00112709
0.0011319
0.00112341
0.00111907
0.00111787
0.000903154
0.000904808
0.000903868
0.000896431
0.000879721
0.000854094
0.000868369
0.000873559
0.000872941
0.000869833
0.000743259
0.000745065
0.000749444
0.000758069
0.000764356
0.000735956
0.000725014
0.00071837
0.000715056
0.000713344
0.000693847
0.000698822
0.000706655
0.000717984
0.000735472
0.000621464
0.000623419
0.000621218
0.000615592
0.000609763
0.000523481
0.000524125
0.000525541
0.000529431
0.000539028
0.000561221
0.000541177
0.000535385
0.000533005
0.000531679
0.000548188
0.000549038
0.000552065
0.000560423
0.000583534
0.000703105
0.000718547
0.000715359
0.000705891
0.000697269
0.000647453
0.000648094
0.000648967
0.000652507
0.000670895
0.000796269
0.000768717
0.000764513
0.000765997
0.000767297
0.000769895
0.000664574
0.000687147
0.000657869
0.000648656
0.000645582
0.000644496
0.000639143
0.000586645
0.000612461
0.000630151
0.000630818
0.000625681
0.000620655
0.000526199
0.000524398
0.000522993
0.000526689
0.000556415
0.000558954
0.000528001
0.000521895
0.000520646
0.000520199
0.000533273
0.000532412
0.000531992
0.000534907
0.000555031
0.00047453
0.000457421
0.000455235
0.000457683
0.000459763
0.000507147
0.000507906
0.000510484
0.00051914
0.000543383
0.000635521
0.000635898
0.000630079
0.000618648
0.000608204
0.000692621
0.000688875
0.000686902
0.000695091
0.000731405
0.000920957
0.000887974
0.000874617
0.000869253
0.000866917
0.00102572