/*--------------------------------*- C++ -*----------------------------------*\
  =========                 |
  \\      /  F ield         | OpenFOAM: The Open Source CFD Toolbox
   \\    /   O peration     | Website:  https://openfoam.org
    \\  /    A nd           | Version:  7
     \\/     M anipulation  |
\*---------------------------------------------------------------------------*/
FoamFile
{
    version     2.0;
    format      ascii;
    class       volVectorField;
    location    "2.75";
    object      wallShearStress;
}
// * * * * * * * * * * * * * * * * * * * * * * * * * * * * * * * * * * * * * //

dimensions      [0 2 -2 0 0 0 0];

internalField   uniform (0 0 0);

boundaryField
{
    outlet1
    {
        type            calculated;
        value           uniform (0 0 0);
    }
    Wall
    {
        type            calculated;
        value           nonuniform List<vector> 
40276
(
(0.000242503 5.49069e-05 0.000209036)
(-0.000184891 -5.75729e-06 0.000414879)
(-0.00018818 -5.34704e-06 0.000406196)
(0.000198617 -0.000206022 0.000155857)
(0.000149021 -0.000147459 0.000133277)
(9.84262e-05 -0.000104624 0.000127355)
(7.87812e-05 -6.47208e-05 0.00012753)
(8.93092e-05 -4.42767e-05 0.000140243)
(7.35596e-05 -2.51799e-05 0.000135225)
(7.51404e-05 -3.82634e-05 0.000141877)
(0.000480842 4.7711e-05 0.000498136)
(0.000575236 2.08851e-05 0.000544171)
(0.000590541 2.75161e-05 0.000947234)
(0.0005685 3.29546e-05 0.000878535)
(0.000271248 1.53519e-05 0.000250637)
(0.000252713 3.23337e-05 0.00028787)
(0.00028738 5.31859e-05 0.000184258)
(0.000288911 4.22136e-05 0.000124535)
(4.19713e-06 -0.000147248 1.53054e-05)
(1.44453e-05 -0.000181 3.24168e-05)
(-0.000110232 2.85329e-05 0.000204768)
(-0.000138405 3.27738e-05 0.000193365)
(-0.000102716 2.80543e-05 6.61971e-05)
(-0.000119804 2.6e-05 6.27463e-05)
(-8.97619e-05 2.13837e-05 4.24128e-05)
(-0.000101346 2.24111e-05 3.69473e-05)
(-8.59184e-05 3.37016e-05 8.55763e-06)
(-8.63996e-05 3.35761e-05 6.27696e-06)
(-0.000192415 6.1399e-05 4.50087e-05)
(-0.000159873 4.85412e-05 3.43999e-05)
(-0.000180815 5.95318e-05 0.000123287)
(-0.000212014 7.42131e-05 0.000133848)
(-5.26756e-05 -3.07172e-06 0.000159987)
(-4.69122e-05 -4.76129e-06 0.000148717)
(-4.20519e-05 9.20441e-06 5.43178e-06)
(-4.18832e-05 1.02107e-05 5.2688e-06)
(0.00059038 4.96505e-05 0.000116048)
(0.000633292 2.12352e-05 0.000106229)
(0.00118216 0.000276189 0.00022975)
(0.00138054 0.000377598 0.000250623)
(0.000996973 3.84778e-05 2.55695e-05)
(0.000922257 5.38134e-06 4.88482e-05)
(3.43732e-06 -1.70785e-05 -0.000469292)
(2.5723e-05 -1.52132e-05 -0.000452036)
(4.70599e-06 2.88036e-07 -0.000450317)
(-1.69412e-06 -8.55677e-06 -0.000400888)
(-3.47573e-05 2.24052e-06 -0.000408333)
(-2.52492e-05 -4.35887e-06 -0.000352123)
(-4.7365e-05 -5.95806e-07 -0.000322483)
(-5.54401e-05 2.40875e-06 -0.000286339)
(-4.98113e-05 -3.18993e-06 -0.000254978)
(-6.7591e-05 3.18305e-06 -0.000263856)
(-6.59164e-05 -1.32442e-06 -0.000228919)
(-7.1804e-05 4.86402e-06 -0.000228988)
(0.000480286 7.00815e-05 0.000203218)
(0.000475824 8.31509e-05 0.000164774)
(-8.70161e-05 3.93139e-05 0.000222164)
(6.27254e-05 2.1881e-05 0.000186836)
(-8.74262e-05 3.55814e-05 0.000225981)
(-0.000474876 1.34015e-05 -0.000453022)
(-0.000502855 5.30569e-06 -0.000463665)
(1.86602e-05 3.40416e-05 0.000285517)
(-1.256e-05 -1.14738e-05 0.000221035)
(1.975e-05 -5.67987e-07 1.34096e-05)
(1.96146e-05 -4.4974e-07 1.46349e-05)
(1.87444e-05 -1.90317e-07 1.36247e-05)
(1.66766e-05 -2.96394e-07 1.25377e-05)
(1.96852e-05 -3.89671e-07 1.37527e-05)
(-9.69946e-05 -3.71433e-07 -8.91192e-05)
(-0.000106351 1.07104e-05 -9.6174e-05)
(-7.66881e-05 7.9393e-06 -0.000205931)
(-7.16568e-05 -1.1974e-06 -0.000211035)
(-4.98054e-05 3.70632e-06 -4.92632e-05)
(-4.99013e-05 3.73818e-06 -4.70662e-05)
(-4.37401e-05 3.37239e-06 -4.31669e-05)
(-4.31715e-05 4.68133e-06 -4.18235e-05)
(-4.85564e-05 2.27677e-06 -4.47781e-05)
(2.10215e-05 -1.17353e-06 -9.07012e-06)
(1.8305e-05 -1.34642e-06 -1.27382e-05)
(3.88363e-06 3.105e-06 -3.98439e-07)
(4.86767e-06 3.23165e-07 -2.61142e-07)
(8.93563e-06 -1.03657e-09 -5.95625e-07)
(2.1257e-05 -9.20745e-06 1.46403e-05)
(1.9893e-05 -9.90682e-06 1.47427e-05)
(1.68249e-05 -2.25848e-05 1.10869e-05)
(1.68679e-05 -1.08191e-07 1.3628e-05)
(1.51559e-05 -2.30672e-07 1.24036e-05)
(1.48296e-05 -2.6732e-07 1.33514e-05)
(1.47954e-05 -2.34042e-05 1.01916e-05)
(5.37583e-06 -2.82232e-05 5.24139e-06)
(3.70172e-06 -2.74855e-05 4.49379e-06)
(-2.82915e-05 -5.22547e-07 -2.58053e-05)
(1.35839e-05 -1.25769e-07 1.22163e-05)
(1.26525e-05 -2.88626e-07 1.29423e-05)
(1.18436e-05 -1.40107e-07 1.19889e-05)
(9.72267e-06 -2.79625e-08 1.13836e-05)
(7.62485e-06 -8.33149e-08 1.07843e-05)
(5.67007e-06 -1.21392e-07 1.03058e-05)
(1.68555e-06 1.5589e-07 7.94021e-06)
(1.06321e-07 6.92355e-08 7.25705e-06)
(-1.35281e-06 -3.84509e-08 6.59625e-06)
(-5.63593e-06 1.85846e-07 2.52769e-06)
(-6.32279e-06 7.28947e-08 1.64064e-06)
(-3.16772e-05 3.03582e-06 -2.79789e-05)
(-6.91537e-06 3.35444e-08 6.90126e-07)
(-4.90155e-06 -8.33351e-06 -5.93192e-06)
(-3.64887e-06 -9.28454e-06 -4.27541e-06)
(-7.20261e-06 -8.3111e-08 -2.75427e-07)
(-7.38839e-06 -1.34719e-07 -1.35113e-06)
(-6.62604e-06 1.23492e-07 -1.89815e-06)
(-7.34848e-06 -1.9969e-07 -2.53686e-06)
(-6.45307e-06 4.38814e-08 -3.1494e-06)
(-6.88008e-06 -3.14061e-07 -3.80428e-06)
(-6.12892e-06 -1.00666e-07 -4.48382e-06)
(-6.06859e-06 -4.86948e-07 -4.71099e-06)
(-5.20112e-06 -1.52665e-06 -2.23073e-05)
(-5.58506e-06 -2.32469e-06 -2.38048e-05)
(-6.17421e-06 -2.57099e-06 -2.22407e-05)
(-0.00024944 -6.12015e-05 0.000474117)
(-0.000250246 -5.92229e-05 0.000430021)
(-8.68131e-06 -2.06876e-06 1.12857e-05)
(-1.66682e-05 -2.66891e-06 1.68749e-05)
(-1.16294e-05 -2.41126e-06 2.08022e-05)
(-5.62205e-06 -2.4428e-06 1.60803e-05)
(-1.97756e-06 -2.30933e-05 -2.75084e-06)
(-5.09704e-07 -1.98222e-05 -1.24049e-06)
(-0.000128265 3.08272e-05 0.00018515)
(-0.000110969 4.04487e-05 0.000156944)
(-0.000160025 -1.22752e-05 0.000274051)
(-0.000139977 -1.81524e-05 0.00023618)
(-0.000105067 -2.39075e-06 0.000176419)
(-9.19331e-05 -5.52354e-06 0.000151871)
(-0.00016256 8.86052e-05 0.000486903)
(-0.000227256 0.000154561 0.000686429)
(1.48806e-05 -1.44355e-05 0.000188128)
(7.29246e-06 -7.6602e-06 0.000158112)
(-9.89183e-05 2.65622e-05 0.000192975)
(-5.27245e-05 4.82025e-07 0.000167992)
(-0.000189805 -3.98879e-05 0.000508162)
(-0.000191719 -2.13623e-05 0.000506501)
(-0.000190328 -3.30795e-05 0.000535467)
(-0.000209027 -8.97651e-06 0.000538838)
(-0.00055859 5.3954e-06 -0.000150857)
(-0.000640071 5.63109e-06 -0.000182831)
(-2.27647e-05 -7.96765e-05 9.96156e-06)
(-2.6559e-05 -7.89402e-05 1.19281e-05)
(-2.15967e-05 -4.38071e-05 6.53832e-05)
(-2.5342e-05 -5.35814e-05 8.17022e-05)
(-2.91281e-05 -5.24844e-05 6.59988e-05)
(-2.33095e-05 -4.04014e-05 5.36729e-05)
(-1.54744e-05 -8.61505e-05 8.48819e-06)
(-1.99015e-05 -9.83583e-05 6.53345e-06)
(-2.3521e-05 -8.34867e-05 8.82111e-06)
(-2.19053e-05 -8.64946e-05 9.21435e-06)
(-2.31364e-05 -0.000128638 -1.56102e-05)
(-1.99747e-05 -0.000111411 -1.41257e-05)
(-7.64517e-06 -5.66212e-05 -3.31677e-06)
(-9.88099e-06 -5.05366e-05 -4.75771e-06)
(-6.09067e-05 -3.0845e-05 9.44387e-05)
(-5.56927e-05 -3.26666e-05 8.92346e-05)
(7.46924e-05 4.83585e-06 -0.000243195)
(7.53399e-05 -3.24186e-06 -0.00022933)
(-0.000136644 -5.73783e-05 -1.23869e-05)
(-0.000135643 -6.41675e-05 -1.4558e-05)
(-0.000316811 -4.97468e-05 0.000128777)
(-0.000338954 -5.42932e-05 0.000118253)
(-0.000287424 -6.99043e-05 -2.5708e-05)
(-0.00028056 -5.78423e-05 -3.4693e-05)
(-0.000163157 0.000189719 0.000222054)
(-0.000156299 0.00023715 0.000205045)
(-0.000244773 -4.46864e-05 1.29556e-05)
(-0.000128748 -4.59652e-05 -1.81476e-05)
(-0.000204549 -7.84963e-05 7.39929e-05)
(-0.00017644 -7.69904e-05 6.2645e-05)
(-0.000223905 -5.22158e-05 5.7892e-05)
(-6.62851e-05 -4.13728e-05 -6.98069e-06)
(-3.9146e-05 -2.08941e-05 6.0569e-05)
(-3.22605e-05 -1.93709e-05 5.59213e-05)
(0.000736521 -0.000322278 0.000480965)
(0.000643616 -0.000265573 0.0003842)
(0.000676042 -0.000416487 0.00023675)
(0.00058135 -0.000283742 0.000259463)
(0.000609352 -0.000355152 0.000228597)
(0.0003987 -0.000348113 0.000176726)
(0.000506919 -0.000389264 0.000215529)
(0.000401616 -0.000330547 0.000174249)
(0.000603272 -0.000318792 0.000400901)
(0.000652689 -0.000392743 0.000392391)
(0.00061794 -0.000361309 0.000318342)
(0.000531273 -0.000416674 0.000181279)
(0.000627413 -0.000437518 0.000174983)
(0.000523663 -0.000363348 0.000214674)
(0.000264737 -0.00024829 0.000153253)
(0.000385673 -0.000354076 0.000176218)
(0.000307758 -0.000272301 0.000171775)
(0.000253807 -0.00024885 0.000163593)
(0.000111554 -0.000104195 0.000133088)
(0.000108882 4.20491e-05 0.000162803)
(0.000143764 5.03442e-05 0.000176811)
(0.000141459 4.66397e-05 0.000174183)
(0.000144097 4.14136e-05 0.000140445)
(0.00018888 4.66212e-05 0.000154222)
(0.000141024 4.93999e-05 0.000172463)
(0.00013721 4.67038e-05 0.000166645)
(0.000117377 -2.45263e-06 0.000228695)
(0.000114539 2.50314e-06 0.000235876)
(9.33169e-05 -4.6729e-06 0.000156753)
(0.000110967 -1.51944e-05 0.000192446)
(9.13682e-05 -2.52783e-05 0.000158455)
(7.97717e-05 -1.7399e-05 0.000142805)
(0.000108847 -1.18446e-05 0.000199272)
(0.000104061 -6.33722e-07 0.000206677)
(7.85363e-05 -1.63585e-05 0.000176824)
(7.46458e-05 -2.2328e-05 0.00015607)
(7.26566e-05 -8.48818e-06 0.000134992)
(6.70647e-05 -6.68743e-06 0.000119207)
(5.78678e-05 -2.01951e-05 0.000107679)
(7.95832e-05 -7.88816e-06 0.00014872)
(4.32926e-05 -1.90541e-05 0.000103669)
(3.5874e-05 -2.12232e-05 8.72518e-05)
(8.64627e-05 -3.83672e-06 0.00024673)
(7.64617e-05 -1.73599e-06 0.000226214)
(6.51288e-05 9.14751e-07 0.000211062)
(5.15527e-05 6.75064e-06 0.000193731)
(8.95232e-05 -1.4367e-05 0.000241838)
(5.28129e-05 -2.66238e-05 0.000206613)
(3.31913e-05 -1.58498e-05 0.000160202)
(1.97155e-05 -1.19563e-05 0.000138184)
(1.76691e-05 -2.65481e-05 0.000140155)
(7.58918e-05 2.25684e-05 0.0001477)
(3.3957e-05 2.41235e-06 0.000126849)
(9.71898e-05 3.44819e-05 0.000140328)
(0.000102187 3.47e-05 0.000132946)
(5.68012e-05 1.77662e-05 0.000108535)
(6.84615e-05 2.42019e-05 0.000114526)
(6.49146e-05 -2.19516e-05 0.00016984)
(4.63028e-05 -2.10637e-05 0.000147675)
(3.80288e-05 -3.36774e-05 0.00014129)
(-5.32932e-06 -4.67226e-05 0.00013059)
(2.02836e-05 -3.07484e-05 9.33698e-05)
(-1.40077e-05 -4.04563e-05 6.99671e-05)
(-5.80813e-06 -2.86183e-05 9.51495e-05)
(8.31087e-06 -1.10963e-05 8.96124e-05)
(-3.5949e-05 -4.09884e-05 4.22814e-05)
(-2.62466e-05 -2.44511e-05 3.42696e-05)
(-3.40705e-05 -2.99019e-05 1.2348e-05)
(-2.05521e-05 -1.75389e-05 2.81205e-05)
(1.65016e-05 2.17003e-06 5.26081e-05)
(3.47368e-05 1.12168e-05 7.03726e-05)
(2.83739e-05 6.7143e-06 5.19045e-05)
(0.00029776 1.7319e-05 0.000519062)
(0.00033827 4.5855e-05 0.00061345)
(0.000298029 -9.67589e-06 0.000529039)
(0.000301598 2.04996e-05 0.000530344)
(0.000438119 0.000123933 0.000485885)
(0.000484681 0.000134329 0.000592075)
(0.00034754 0.000121446 0.000491591)
(0.000385798 0.00011614 0.000569939)
(0.000329296 0.000113567 0.000512776)
(0.000316577 9.69676e-05 0.000537386)
(0.000451982 0.000177276 0.000604467)
(0.000379225 0.000151825 0.000452793)
(0.000443398 0.000163612 0.000575885)
(0.000280359 0.000105221 0.000470503)
(0.000380603 0.000137513 0.000591026)
(0.000493418 0.000158984 0.000468547)
(0.000415688 0.000153807 0.000525681)
(0.00041846 0.000155042 0.00053759)
(0.000454367 0.000145272 0.000641302)
(0.000482994 0.000189513 0.000580529)
(0.000526035 0.000205037 0.000565755)
(0.00049223 0.000199447 0.00051783)
(0.000486757 0.000167529 0.000626912)
(0.000474886 0.000170905 0.000635767)
(0.000508999 9.43368e-05 0.000585669)
(0.000643059 0.000100416 0.00062197)
(0.0004951 0.000118294 0.000596896)
(0.000368195 0.000115126 0.000446336)
(0.000467787 0.000112147 0.000562268)
(0.000502555 8.64992e-05 0.000491432)
(0.000370688 6.71258e-05 0.000358928)
(0.000393973 0.000118567 0.000420045)
(0.000440495 0.000101264 0.000418487)
(0.000427626 0.000109077 0.000395444)
(0.00061303 -4.50707e-05 0.000545982)
(0.000635753 -6.90237e-05 0.000539415)
(0.000669755 -0.000193623 0.000492034)
(0.000498921 -8.0717e-05 0.00043335)
(0.000600504 -0.000162793 0.000357414)
(0.000462762 -1.53464e-05 0.000390196)
(0.000646477 -0.00018021 0.0003685)
(0.000412347 -3.81364e-05 0.000303744)
(0.000546213 -0.000137018 0.000267141)
(0.000687165 -0.000296965 0.000256243)
(0.000391465 6.42075e-05 0.000390791)
(0.000394015 9.4754e-05 0.000395353)
(0.000428537 1.74103e-05 0.000305117)
(0.000418937 6.36281e-05 0.0003145)
(0.000474706 0.000171927 0.000442767)
(0.000483308 0.000168073 0.000571733)
(0.00049527 0.000171001 0.000524125)
(0.000515474 0.00014928 0.000421582)
(0.000574837 0.000189631 0.000459135)
(0.000552534 0.000212825 0.00057872)
(0.000474984 0.000165649 0.000569476)
(0.000513235 0.000169021 0.000607323)
(0.000523751 0.000195412 0.000416835)
(0.000501474 0.000179057 0.000571433)
(0.000504247 0.000183766 0.000581121)
(0.000605061 0.000220977 0.00069372)
(0.000594091 0.000216338 0.000546089)
(0.000453441 0.000130199 0.00038599)
(0.000640388 0.000201442 0.00043061)
(0.000502062 0.000110489 0.00037586)
(0.000649601 0.000161933 0.000375877)
(0.000566681 0.000200702 0.000437863)
(0.000574328 0.000183481 0.000517666)
(0.000764727 0.000294672 0.000531582)
(0.000605278 0.000207869 0.000404682)
(0.000580946 0.000176761 0.000429977)
(0.000813671 0.000293449 0.000456855)
(0.000603176 0.000267175 0.000487359)
(0.000643119 0.000226983 0.000615966)
(0.000597572 0.000197475 0.000656074)
(0.000706555 0.000251104 0.000607644)
(0.000715643 0.000260296 0.000582723)
(0.000370297 0.000137243 0.000509374)
(0.000370665 0.000134291 0.000515753)
(0.000251318 6.60797e-05 0.000479849)
(0.000372275 0.000133683 0.000559526)
(0.000452806 0.000118638 0.000698982)
(0.000418957 0.000110699 0.000653406)
(0.000387552 0.000133161 0.000527966)
(0.000413141 0.000145847 0.000559145)
(0.000398771 0.000141266 0.000608747)
(0.000369856 4.86728e-05 0.000675828)
(0.000319209 2.44269e-05 0.000614272)
(0.000380764 9.45774e-05 0.000656354)
(0.000350956 8.0973e-05 0.000613816)
(0.000314088 2.08462e-05 0.000529374)
(0.000432123 0.000155142 0.000571112)
(0.000459655 0.000124424 0.000659867)
(0.000402619 0.000103544 0.000625939)
(0.000388998 -2.82451e-05 0.000657039)
(0.000491678 0.000132383 0.000764232)
(0.000369196 4.32267e-05 0.000663592)
(0.000477354 0.000180443 0.000568914)
(0.000527997 0.000196039 0.000621508)
(0.00047354 0.00013729 0.000691645)
(0.000441615 0.000158511 0.000594334)
(0.000516728 0.00019322 0.000609564)
(0.000521392 0.000113357 0.00074984)
(0.000522754 0.000126303 0.000819012)
(0.000414496 2.1244e-05 0.00072167)
(0.000375662 2.12519e-05 0.000630778)
(0.000408335 4.84185e-05 0.000678218)
(0.000468432 0.000109383 0.00071225)
(0.000395569 4.89225e-05 0.000633479)
(0.000519312 0.000200209 0.000639007)
(0.00052582 8.63777e-05 0.000791973)
(0.000602005 0.000171637 0.000882058)
(0.000275637 -4.01032e-06 0.000485922)
(0.000290872 3.62928e-05 0.000508878)
(0.000348809 0.000119089 0.000549266)
(0.000367525 7.07082e-05 0.000622541)
(0.000339354 1.0806e-05 0.000564634)
(0.000437829 7.56656e-05 0.000702211)
(0.000328597 -2.95837e-05 0.000556164)
(0.000335342 1.56182e-05 0.00056239)
(0.000422982 0.000126801 0.000666619)
(0.000343512 3.47093e-05 0.000582059)
(0.000293247 2.43993e-05 0.000490899)
(0.000357682 -1.05655e-05 0.000587117)
(0.0003037 2.94859e-05 0.000506842)
(0.000342619 3.38349e-05 0.000562274)
(0.000414278 2.29772e-05 0.00067581)
(0.000319115 7.82683e-05 0.000546216)
(0.000315632 4.30476e-05 0.000526194)
(0.000401761 -7.07937e-05 0.000611532)
(0.00048165 0.000108737 0.000765661)
(0.000412497 -4.67525e-05 0.000705159)
(0.000525357 4.77461e-05 0.000860914)
(0.000400623 -1.20802e-05 0.00067714)
(0.000421987 2.52884e-06 0.00070799)
(0.000536449 0.00014175 0.000786388)
(0.000425667 3.33736e-05 0.000682154)
(0.000485036 1.21348e-05 0.00077635)
(0.000516702 2.88671e-05 0.000845061)
(0.000516754 6.32291e-06 0.000825023)
(0.000417349 2.11659e-05 0.000666035)
(0.000468809 2.37858e-05 0.000743771)
(0.000415691 1.05453e-05 0.00065631)
(0.0004707 3.5784e-05 0.000741955)
(0.000565697 0.000172216 0.000734779)
(0.000564026 0.000198841 0.000663514)
(-2.10563e-05 -4.91831e-05 0.000160705)
(0.000576952 0.000141726 0.000818421)
(0.000502809 0.000128399 0.000711156)
(0.000653047 0.00024331 0.000702192)
(0.000590656 0.000224628 0.000628796)
(0.000634361 0.00022045 0.000715737)
(-2.53254e-05 -4.8845e-05 0.00016015)
(0.000568634 0.000174734 0.000761422)
(0.000570485 0.000199648 0.000685616)
(0.000623619 0.00022409 0.000725856)
(0.000573322 0.000161659 0.000811256)
(0.000635347 0.00016181 0.000949968)
(-2.29563e-05 -4.86254e-05 0.000157372)
(0.000472212 4.88533e-05 0.000769632)
(0.000436905 4.00063e-05 0.000731833)
(0.000468014 6.57947e-05 0.000739065)
(0.000537956 4.02514e-05 0.00082664)
(0.000467138 8.79336e-05 0.000729265)
(-2.54328e-05 -3.81046e-05 0.000160394)
(0.000584363 0.000223606 0.000698443)
(0.0006115 0.000109333 0.000878555)
(0.000696981 0.000205874 0.000962645)
(0.000674806 0.000224988 0.000799247)
(0.000757849 0.000273283 0.000671776)
(0.000830087 0.000319501 0.000652653)
(0.000658191 0.000188625 0.000861379)
(0.000621667 0.000179124 0.000773701)
(0.000658764 0.000275732 0.000629687)
(0.000694676 0.000253758 0.000689479)
(0.000674593 0.0002198 0.000782944)
(0.00072571 0.000249458 0.000827625)
(0.000771385 0.000299667 0.000807633)
(0.000684595 0.000214804 0.000868342)
(0.000697854 0.000164155 0.000971443)
(0.000570469 0.000129394 0.000814065)
(0.000641924 0.000130866 0.00100595)
(0.000516357 8.3745e-05 0.000786197)
(0.000605263 7.52354e-05 0.000922085)
(0.00075149 0.000248192 0.000952735)
(0.000624217 0.000194637 0.000801979)
(0.000673552 0.000177042 0.000959683)
(0.000557224 8.90875e-05 0.000900724)
(0.000571285 0.000139886 0.00082527)
(0.000759978 0.0001318 0.00106965)
(0.000654679 0.000129458 0.00102388)
(0.000601895 4.78375e-05 0.000968979)
(0.000591601 1.68627e-05 0.00093951)
(0.000483192 1.1107e-05 0.000807872)
(0.00047146 3.72688e-05 0.000759649)
(0.000616742 0.000107257 0.000898274)
(0.000633528 0.000120075 0.000989655)
(0.000589089 1.33785e-05 0.000925424)
(0.000607966 3.59061e-05 0.000954685)
(0.000609798 -3.31609e-05 0.000946308)
(0.000583385 4.46522e-05 0.000893018)
(0.000689712 0.000128058 0.00100493)
(-3.14228e-05 -4.32124e-05 0.000168809)
(0.000516403 -8.07357e-06 0.000843719)
(0.000467708 3.90468e-05 0.000743977)
(0.000675711 0.000158464 0.000994696)
(0.000711958 0.000202531 0.00106335)
(0.000587652 -3.57601e-07 0.000980688)
(0.000743878 7.48595e-05 0.00117129)
(0.000544616 4.85264e-05 0.000853083)
(0.000668151 3.56134e-05 0.00102529)
(0.00053563 8.14339e-05 0.000848155)
(0.000513073 6.76441e-06 0.000785823)
(0.000648723 -7.55607e-05 0.000963647)
(0.000727262 5.10599e-05 0.00114957)
(0.000723484 3.50641e-05 0.00113685)
(0.000305662 -4.61644e-05 0.000438016)
(0.000229672 1.68092e-05 0.000353431)
(0.000245465 1.42442e-05 0.000356002)
(0.000230854 6.98071e-06 0.000350925)
(0.000170259 3.00737e-05 0.000301695)
(0.000210018 3.19837e-05 0.000338858)
(0.000260665 1.43496e-05 0.000354141)
(0.000203204 4.50001e-05 0.000336522)
(0.000308084 3.42765e-05 0.000543233)
(0.00030072 4.71857e-05 0.000503891)
(-2.31657e-05 -4.185e-05 0.000153906)
(-2.68434e-05 -4.388e-05 0.000160822)
(-2.48346e-05 -4.05391e-05 0.00014894)
(-2.63208e-05 -3.68458e-05 0.000149806)
(0.000319576 3.77519e-05 0.000509715)
(0.000282759 7.02982e-05 0.00045975)
(0.000320886 2.5303e-05 0.00044717)
(0.000273375 4.46026e-05 0.000396994)
(0.000316967 1.45995e-05 0.000436641)
(0.000299607 3.83675e-05 0.000416518)
(-2.97747e-05 -3.62365e-05 0.000155226)
(0.000314284 1.59963e-05 0.000422589)
(-3.51112e-05 -2.88895e-05 0.00016532)
(-3.01876e-05 -3.46079e-05 0.000156284)
(0.000241841 4.28038e-05 0.000236095)
(0.000216211 4.15665e-05 0.000226019)
(0.000216852 3.02547e-05 0.000233071)
(-3.35343e-05 -3.44443e-05 0.000154305)
(-2.65902e-05 -3.83715e-05 0.00016511)
(-2.59777e-05 -4.19166e-05 0.000161625)
(-3.23982e-05 -3.37758e-05 0.000175544)
(-3.39506e-05 -4.2349e-05 0.000183202)
(-2.97797e-05 -3.03021e-05 0.000167128)
(-2.8628e-05 -2.62181e-05 0.000159882)
(-3.47442e-05 -3.45014e-05 0.000159442)
(0.00019584 5.28708e-05 0.00015612)
(0.000239201 5.43617e-05 0.000184393)
(0.000198164 4.21804e-05 0.000160034)
(0.00017955 5.03516e-05 0.000160178)
(0.000211203 5.07276e-05 0.000179063)
(0.00024655 3.83288e-05 0.000198377)
(0.000244182 4.24977e-05 0.000231282)
(0.00028442 2.90773e-05 0.000249683)
(0.000274027 3.84982e-05 0.000226167)
(0.000239398 4.44294e-05 0.000238877)
(0.000248651 5.23592e-05 0.000191628)
(0.000264034 4.02132e-05 0.000206857)
(0.000252397 2.82291e-05 0.000291673)
(0.000233885 3.39723e-05 0.000298557)
(0.000276033 2.08038e-05 0.000336554)
(0.000226253 3.05461e-05 0.000312361)
(0.000248259 1.62427e-05 0.000316599)
(0.000208409 3.31059e-05 0.000300516)
(0.000296142 4.89791e-05 0.000358815)
(0.000308459 2.3932e-05 0.00031953)
(0.000282356 2.95284e-05 0.00029665)
(0.000245463 2.98645e-05 0.000284497)
(0.000289153 2.15204e-05 0.000382568)
(0.000284846 2.29918e-05 0.000333269)
(0.000309438 4.24451e-05 0.000408217)
(0.000291995 4.69038e-05 0.000302565)
(0.00032258 2.10374e-05 0.000347364)
(0.00030968 1.60339e-05 0.000290572)
(0.00032967 2.44074e-05 0.000338366)
(0.000322596 2.95344e-05 0.000325105)
(0.000308839 3.93486e-05 0.00038952)
(0.000332814 1.67593e-05 0.000419873)
(0.000346217 -2.04501e-06 0.000399867)
(0.000355403 3.37451e-05 0.000456083)
(0.000390977 3.07048e-05 0.000456431)
(0.000383572 4.0952e-07 0.000392675)
(0.000365881 -3.52084e-06 0.000314337)
(0.00037582 1.88455e-05 0.000382598)
(0.000314813 2.49859e-05 0.000273358)
(0.000299783 1.93296e-05 0.000227619)
(0.000329405 2.8677e-05 0.000269259)
(0.000155522 4.70895e-05 0.000129468)
(0.0001857 5.05321e-05 0.000150427)
(0.000133719 4.32341e-05 0.000103386)
(0.000185773 5.33475e-05 0.000122854)
(0.00022159 4.53579e-05 0.000158948)
(0.000273778 3.57137e-05 0.000188559)
(0.00023063 5.53605e-05 0.000159078)
(8.69195e-05 3.20636e-05 6.18496e-05)
(0.000188153 5.84487e-05 8.12216e-05)
(1.22241e-05 6.20308e-07 3.64111e-05)
(4.17866e-05 1.71216e-05 3.90567e-05)
(0.000140435 5.29441e-05 4.05117e-05)
(0.000182451 5.55988e-05 0.000103763)
(0.000170534 3.41524e-05 4.59283e-05)
(0.000222841 5.35349e-05 0.000114966)
(0.000279065 4.19129e-05 8.72647e-05)
(0.000165718 5.30261e-05 4.47635e-05)
(0.000176917 4.59338e-05 6.11772e-05)
(0.000265711 5.56692e-05 7.71118e-05)
(0.000399206 1.33443e-05 0.000348924)
(0.000451341 -1.04385e-05 0.000452599)
(0.000407635 -2.83088e-06 0.000390525)
(0.000456102 -3.38965e-06 0.000443402)
(0.000319323 3.52554e-05 0.000239486)
(0.000378875 1.62932e-06 0.000304005)
(0.00034621 1.84194e-05 0.000264183)
(0.000359164 1.65559e-05 0.000291738)
(0.000321431 3.61441e-05 0.000204814)
(0.000353572 2.46525e-05 0.000270479)
(0.000433087 -2.129e-05 0.00027398)
(0.000495815 -7.03338e-06 0.000369002)
(0.000496033 -3.87763e-05 0.000415632)
(0.000469199 -1.9711e-05 0.000341859)
(0.000415853 8.10702e-06 0.000371265)
(0.000324215 3.46237e-05 0.000120422)
(0.00035073 2.53759e-05 0.000156754)
(0.000398326 -4.22957e-06 0.000223988)
(0.000369624 1.922e-05 0.000157797)
(0.000370139 1.51779e-05 0.000186428)
(0.000299209 4.6817e-05 0.00012246)
(0.000349163 2.47812e-05 0.000149884)
(0.000478067 -5.648e-06 0.000284701)
(0.00049328 -3.55806e-05 0.000315723)
(0.000560008 -5.97159e-05 0.000297072)
(0.000472632 -1.6412e-05 0.000251209)
(0.000438934 -1.12675e-06 0.00022483)
(0.00046939 -1.7236e-05 0.000223302)
(0.000277764 4.75327e-05 0.000472517)
(0.000291247 2.47259e-05 0.000478252)
(0.000326647 -2.56423e-05 0.000506103)
(0.000318476 1.11002e-05 0.000496419)
(0.000268054 6.0579e-05 0.000448982)
(0.000298517 2.66129e-06 0.000447998)
(0.000420644 -2.97754e-05 0.000623234)
(0.000290111 2.86818e-05 0.000475252)
(0.000315541 1.03934e-05 0.000482843)
(0.000357317 2.06552e-05 0.000549382)
(0.000344094 3.4981e-06 0.000488907)
(0.000312083 1.88916e-05 0.000448787)
(0.000339033 2.02945e-05 0.000492032)
(0.000442445 -1.03276e-05 0.000630377)
(0.000467888 1.88847e-05 0.000769111)
(0.000346573 4.13891e-05 0.000550595)
(0.000389055 4.35082e-05 0.00062777)
(0.000391429 5.85065e-05 0.000656578)
(0.000413509 3.37119e-06 0.000632569)
(0.000545396 -7.1021e-05 0.000768739)
(0.000495501 -8.88892e-05 0.000670924)
(0.000398415 7.68405e-05 0.000661885)
(0.000408639 7.97884e-06 0.000618903)
(0.000355813 2.6896e-05 0.000522244)
(0.000394684 2.16363e-05 0.000575422)
(0.000379572 4.85344e-06 0.000514425)
(0.00032815 2.39115e-05 0.000451256)
(0.000367494 1.94567e-05 0.00050327)
(-3.62881e-05 -2.9958e-05 0.0001613)
(0.000457392 -4.08953e-05 0.000601363)
(0.000404994 9.89593e-06 0.000524549)
(0.000452653 2.69509e-05 0.000604152)
(0.000387008 1.5838e-05 0.000581254)
(0.000438851 -6.73165e-06 0.000596768)
(0.000503195 -1.69713e-05 0.000675526)
(0.000423652 -1.48313e-05 0.000521507)
(0.000391159 -4.1089e-06 0.000440981)
(0.000395465 3.15772e-05 0.000522987)
(0.000624065 -3.30061e-05 0.00095304)
(0.000421273 3.55384e-05 0.000659394)
(-3.64315e-05 -2.5781e-05 0.000149055)
(0.000445419 1.37719e-05 0.000658931)
(0.000507773 1.8105e-05 0.000759873)
(0.000600985 -3.58986e-05 0.000870493)
(0.000581837 -6.47715e-05 0.000781602)
(0.000406577 1.48182e-05 0.000576103)
(-4.15601e-05 -2.12164e-05 0.000160833)
(0.000483938 -8.88436e-05 0.000542837)
(0.000517823 -3.29331e-07 0.000692119)
(0.000577516 -2.07618e-05 0.000841545)
(0.000487259 1.68237e-06 0.00070082)
(0.000548164 1.76872e-05 0.000785233)
(0.000600011 -2.24739e-05 0.000805613)
(0.000506267 3.94167e-05 0.000701095)
(0.000667174 -8.14971e-05 0.000852169)
(0.000552459 -3.68324e-05 0.000704157)
(0.000602514 -1.01136e-05 0.000814609)
(0.000474909 4.17046e-05 0.000749201)
(0.000477162 -1.00177e-05 0.000708304)
(0.000582346 -3.91219e-05 0.000845557)
(0.000647407 -1.73107e-05 0.000979474)
(0.000618686 -8.7973e-05 0.000892489)
(0.000554544 9.68844e-05 0.000876905)
(0.000674762 -6.12865e-05 0.00102323)
(0.000623873 0.000123864 0.000997826)
(0.00058148 4.03831e-05 0.000909314)
(0.000563222 1.90776e-05 0.000850657)
(0.000671031 -4.64685e-05 0.000970374)
(0.000532799 -3.69509e-06 0.000806649)
(0.000566326 -2.09397e-05 0.000798015)
(0.000656167 -5.20495e-05 0.000899883)
(0.000771358 -7.98394e-05 0.00102559)
(0.000566521 -3.06303e-05 0.000804449)
(0.000626914 -6.3998e-05 0.000783823)
(0.000687836 1.26398e-05 0.000943561)
(0.000448058 2.2706e-06 0.000510449)
(0.00041158 -3.8651e-05 0.000481035)
(0.000477392 -5.00475e-05 0.000501423)
(0.00048028 1.66839e-05 0.000608561)
(0.000560144 -1.77468e-05 0.000688439)
(0.000505271 1.26277e-05 0.00058909)
(0.000498613 -4.04227e-05 0.000512541)
(0.000499486 -3.24664e-05 0.000433727)
(0.000503742 -9.95524e-06 0.000496167)
(0.000590385 -4.96447e-05 0.000608808)
(0.000557127 -6.5665e-05 0.000507177)
(0.000590396 -4.48644e-05 0.000589606)
(0.00062346 -6.6752e-05 0.000715847)
(-4.42811e-05 -1.70312e-05 0.00015906)
(0.000540003 -3.81258e-05 0.000620253)
(0.000587552 -3.18969e-05 0.000699673)
(0.000726798 -0.000123664 0.000860155)
(0.000631998 -6.90389e-05 0.000704589)
(0.000665535 -2.96562e-05 0.000822516)
(-4.75758e-05 -1.23343e-05 0.000160365)
(0.000676309 -0.000104986 0.000702608)
(0.000657958 -0.00013907 0.000534603)
(-3.60798e-05 -3.43472e-05 0.000183695)
(0.000646291 -3.63575e-05 0.000716908)
(0.000547505 -4.39675e-05 0.000476158)
(-4.0142e-05 -2.70398e-05 0.000186947)
(0.000551563 -5.69447e-05 0.000410111)
(0.000554039 -2.82858e-05 0.000472282)
(-3.4358e-05 -3.41643e-05 0.000168916)
(0.000649085 -5.32516e-05 0.000426346)
(-3.75068e-05 -1.66554e-05 0.000170232)
(-4.08117e-05 -2.86137e-05 0.000183737)
(0.000608154 -0.000106669 0.000475618)
(0.000633266 -0.000116055 0.000416)
(-4.19809e-05 -2.71939e-05 0.000183447)
(0.00062582 -3.57172e-05 0.000590472)
(0.000586276 -0.000415576 0.000206035)
(-4.55226e-05 -1.97474e-05 0.000178712)
(0.000628145 -0.000448636 0.000126957)
(0.000510129 -0.000386724 0.000121421)
(-4.45342e-05 -2.03976e-05 0.000182811)
(0.000444807 -0.000368267 0.000173427)
(0.000502708 -0.000410525 0.000144911)
(-4.84343e-05 -1.29979e-05 0.000191525)
(0.00038005 -0.000338284 0.000111042)
(0.000462797 -0.000349042 0.000226758)
(-3.72421e-05 -1.95819e-05 0.000164765)
(-3.37346e-05 -1.73471e-05 0.000151944)
(0.000498018 -0.000388049 0.000117301)
(-3.93745e-05 -2.37619e-05 0.000154396)
(-4.12428e-05 -1.81636e-05 0.000168748)
(0.000321866 -0.000296673 0.000154305)
(-3.96826e-05 -1.57851e-05 0.000153256)
(-4.362e-05 -1.31614e-05 0.000167119)
(0.000385095 -0.000354255 0.00014378)
(-4.22042e-05 -1.25527e-05 0.00015141)
(0.000284626 -0.000272321 0.000121067)
(0.000190329 -0.000207508 9.88233e-05)
(0.000287268 -0.000282268 0.000149962)
(0.000211126 -0.000203698 0.000132538)
(0.000177579 -0.000184302 0.000107399)
(0.000246156 -0.000221211 0.000136904)
(0.000181782 -0.000187131 0.000105595)
(0.00032145 -0.000258567 0.000204109)
(0.000356271 -0.000297958 0.00014429)
(0.000387528 -0.000380765 6.64706e-05)
(0.000534026 -0.000445537 8.57437e-05)
(0.000381152 -0.0003187 0.000123215)
(0.000222566 -0.000231749 7.28437e-05)
(0.000372552 -0.000348121 0.000108069)
(0.000270971 -0.00023731 0.000138273)
(0.000246953 -0.000243889 0.000143344)
(0.000276184 -0.000226217 0.000173407)
(0.000329716 -0.000273484 0.000123051)
(0.000139757 -0.000176007 5.3956e-05)
(0.000219749 -0.000197056 0.000115747)
(0.000160747 -0.000162055 9.75871e-05)
(6.61516e-05 -8.53143e-05 6.2409e-05)
(0.000116099 -0.00012678 9.28349e-05)
(9.22016e-05 -9.20522e-05 9.78874e-05)
(7.70338e-05 -8.87354e-05 9.11264e-05)
(6.13925e-05 -5.12057e-05 9.08118e-05)
(4.67521e-05 -5.6672e-05 6.40106e-05)
(-2.55588e-05 -3.87371e-05 0.00014519)
(6.78698e-05 -5.79561e-05 8.30621e-05)
(5.50403e-05 -6.0911e-05 6.47823e-05)
(4.50782e-05 -4.88202e-05 6.82771e-05)
(4.06421e-05 -3.3649e-05 6.16495e-05)
(0.00016597 -0.000189619 0.000112678)
(-2.83813e-05 -3.54342e-05 0.000147546)
(0.000106281 -0.000123647 8.05284e-05)
(0.00017042 -0.000161036 0.000117537)
(0.000132906 -0.000132309 0.000105945)
(0.000103753 -0.000113331 9.90045e-05)