/*--------------------------------*- C++ -*----------------------------------*\
  =========                 |
  \\      /  F ield         | OpenFOAM: The Open Source CFD Toolbox
   \\    /   O peration     | Website:  https://openfoam.org
    \\  /    A nd           | Version:  7
     \\/     M anipulation  |
\*---------------------------------------------------------------------------*/
FoamFile
{
    version     2.0;
    format      ascii;
    class       volScalarField;
    location    "0.5";
    object      p;
}
// * * * * * * * * * * * * * * * * * * * * * * * * * * * * * * * * * * * * * //

dimensions      [0 2 -2 0 0 0 0];

internalField   nonuniform List<scalar> 
382612
(
0.00205162
0.00191056
0.00207361
0.00209132
0.00188702
0.0023868
0.00223373
0.00203447
0.00190058
0.00147379
0.00181504
0.00180488
0.00149654
0.00179632
0.00196752
0.00224565
0.00205107
0.00223248
0.00217408
0.00224961
0.00229813
0.00235489
0.0024135
0.00246321
0.00243066
0.00238959
0.00234694
0.00291832
0.00298552
0.0030407
0.00308626
0.00288961
0.00286975
0.0028448
0.00281054
0.00268412
0.00228553
0.00228615
0.00241419
0.00247989
0.00253862
0.00259408
0.00252399
0.00249647
0.00246211
0.00241962
0.00230103
0.00232229
0.00234889
0.00237062
0.0025587
0.00251554
0.00247005
0.00242085
0.00231825
0.00223635
0.00220541
0.00221519
0.00236065
0.00226782
0.00223303
0.00227218
0.00223131
0.0026584
0.00206407
0.00203961
0.00250133
0.00273791
0.00282624
0.00306071
0.0030971
0.00310783
0.00311407
0.00330528
0.00329247
0.00327694
0.00324431
0.00308768
0.00274212
0.00289119
0.00294792
0.00298638
0.00301416
0.00331195
0.00331625
0.00331899
0.00328627
0.00306119
0.00226727
0.00246743
0.00251645
0.00254006
0.00255537
0.00269529
0.00270616
0.00271915
0.00271241
0.00261115
0.00224721
0.00224027
0.00230865
0.0023391
0.0023709
0.00240923
0.00225734
0.00224689
0.0022362
0.00223429
0.00209451
0.00213031
0.00215708
0.00217694
0.00247718
0.00243188
0.00238717
0.0023411
0.00223385
0.00195539
0.00195874
0.00200139
0.0020232
0.00203748
0.00222556
0.0021836
0.00214448
0.00210038
0.0019794
0.00174929
0.00188369
0.00206483
0.00209918
0.00211393
0.00212026
0.00228322
0.00228847
0.00229557
0.0023024
0.00241484
0.00238043
0.00227517
0.00225069
0.00223512
0.0022238
0.00194734
0.00193608
0.0019216
0.0019093
0.00205602
0.00207924
0.00209961
0.00211654
0.00213945
0.00212265
0.00210731
0.00209767
0.00214138
0.00205604
0.00198216
0.00197885
0.00198636
0.00199278
0.00178737
0.00199925
0.00211321
0.00179552
0.00185585
0.00180347
0.00210488
0.00221556
0.00159888
0.00174218
0.00219355
0.00174411
0.00182585
0.00184769
0.00181628
0.00181597
0.0018208
0.00182224
0.00228803
0.00230032
0.00231897
0.00233717
0.00230861
0.00188837
0.00186076
0.00185589
0.00185978
0.00186429
0.00219223
0.00220781
0.00223307
0.00226121
0.00227825
0.00205926
0.00215969
0.00218061
0.00218165
0.00217767
0.00217617
0.00199029
0.00199268
0.00199829
0.00201133
0.00164927
0.00165328
0.00166099
0.00166395
0.00202295
0.00201948
0.00201546
0.00201468
0.00204717
0.00166706
0.0016132
0.00202363
0.00191763
0.00155739
0.00185345
0.00202243
0.00169941
0.00199814
0.0019246
0.00155026
0.00152259
0.00187612
0.00175818
0.00131701
0.00126548
0.00171581
0.00175449
0.00143
0.00154913
0.00184008
0.00172974
0.00133363
0.00161712
0.00183402
0.00192352
0.00184329
0.00209623
0.0020892
0.00224241
0.00227689
0.00210948
0.00204164
0.00213837
0.00216967
0.00220586
0.00224568
0.00250677
0.00249118
0.00246713
0.00240682
0.00282166
0.00281909
0.00281148
0.00280134
0.00332247
0.00330747
0.00329104
0.00325132
0.00305582
0.0028284
0.00278811
0.0028503
0.00288615
0.00290434
0.00292214
0.00250452
0.00250069
0.00248679
0.00246072
0.002452
0.00290456
0.00289779
0.00291932
0.00294079
0.0029568
0.00296377
0.00294798
0.00292331
0.00289868
0.00287726
0.00308631
0.00310995
0.00311514
0.00312865
0.00314038
0.00322848
0.00322524
0.00322116
0.00320418
0.00309349
0.00301021
0.0031691
0.00321005
0.00323192
0.00324648
0.00366537
0.00366706
0.00366963
0.00363877
0.00340222
0.00264994
0.00275484
0.00278305
0.00280521
0.00282208
0.00268261
0.00267168
0.00265533
0.0026197
0.0024511
0.00221386
0.00232643
0.00236951
0.00239842
0.00241699
0.00275284
0.00276859
0.00279257
0.00279834
0.00268499
0.00190237
0.00192569
0.00193739
0.00195812
0.00197712
0.00221347
0.00225363
0.00226799
0.00227779
0.00228378
0.00208389
0.00206627
0.00204487
0.00202592
0.00197776
0.00243016
0.00245017
0.0024323
0.00240619
0.00238656
0.00186278
0.00185278
0.00184009
0.00183494
0.00184267
0.00228167
0.00224552
0.00221549
0.00218832
0.00217003
0.00173515
0.00173484
0.0017347
0.00174762
0.0018191
0.0018905
0.00183922
0.00183379
0.00184071
0.00184754
0.00207796
0.00209368
0.00211704
0.00214551
0.00219399
0.0018613
0.00178462
0.00177294
0.00177553
0.00177809
0.00208731
0.00209894
0.00211617
0.00213521
0.00214401
0.00199014
0.00205155
0.00205631
0.00205736
0.00205457
0.0020524
0.00194241
0.0019433
0.0019452
0.00195198
0.00178183
0.00178033
0.00178135
0.00178117
0.00198433
0.00198548
0.0019865
0.00198738
0.00199212
0.00179058
0.00195783
0.00190374
0.0018928
0.00189192
0.00189162
0.00183884
0.00195191
0.00208045
0.00202958
0.00201049
0.00199989
0.00199299
0.0019264
0.00192876
0.00193118
0.00193234
0.00202267
0.00201888
0.00201408
0.00201058
0.00202128
0.00202367
0.00202681
0.00202889
0.00196009
0.00196116
0.00196222
0.00196193
0.00206356
0.00206975
0.00207785
0.00208818
0.00212284
0.0019755
0.00203439
0.00206877
0.00206433
0.00182071
0.00198996
0.00198233
0.00179264
0.00173105
0.00196726
0.00195334
0.00173798
0.00212124
0.00211747
0.00206348
0.00204293
0.00193738
0.00202794
0.00193651
0.00196828
0.00192649
0.00204639
0.00210474
0.00205561
0.00204366
0.00204063
0.00203965
0.0020158
0.00201388
0.00201096
0.00201166
0.00203582
0.00221768
0.00220253
0.00219055
0.00218501
0.00218362
0.00213922
0.0021428
0.00214878
0.00215981
0.00219099
0.00204753
0.00203821
0.00203405
0.00203187
0.00202802
0.00202495
0.00203536
0.00203379
0.00203174
0.00203129
0.00194214
0.00194386
0.00194451
0.0019444
0.00198982
0.00199253
0.00199571
0.00199847
0.00200668
0.00193528
0.00206123
0.00204246
0.00203832
0.00203438
0.00203093
0.00202752
0.00206817
0.00206909
0.00204478
0.00204749
0.00205322
0.0020569
0.00213521
0.0021346
0.00213088
0.00212576
0.00213332
0.00233809
0.00234873
0.00234217
0.00233708
0.00233518
0.00216914
0.00216903
0.00216936
0.00217743
0.0022265
0.00218651
0.00217284
0.00216994
0.00216636
0.00216307
0.00201948
0.00201763
0.00201524
0.00201489
0.00203406
0.00203062
0.0020251
0.00202026
0.00203245
0.0020364
0.00204047
0.0020436
0.0020272
0.00202489
0.00202356
0.0020211
0.00221149
0.0022051
0.00219519
0.00218783
0.0022138
0.00205388
0.00205586
0.00207213
0.00211242
0.00192785
0.001984
0.00201888
0.00195528
0.00183952
0.00196854
0.00201704
0.00194011
0.00212894
0.00208054
0.00205329
0.00209188
0.00202698
0.0020388
0.00214135
0.00210435
0.0022335
0.00219227
0.00217796
0.00212189
0.00211741
0.00212418
0.0021301
0.00227447
0.00226696
0.00225712
0.00225074
0.00227557
0.00239358
0.00239145
0.00238697
0.00238453
0.0023828
0.00225336
0.00225577
0.00225722
0.00225957
0.00228741
0.00240773
0.00239059
0.00238914
0.00238696
0.00238477
0.00233745
0.00232711
0.0023123
0.00229838
0.00230982
0.00216811
0.00213836
0.00213071
0.00212137
0.00211206
0.00225764
0.00224882
0.00223665
0.00222324
0.00222868
0.00212151
0.00208499
0.00207757
0.00208015
0.00207985
0.00207831
0.00206228
0.00206073
0.00205812
0.00206379
0.00207292
0.00207429
0.00207497
0.00207474
0.00205259
0.00205433
0.00205596
0.00205673
0.00206265
0.00207908
0.00204257
0.00205338
0.00212035
0.00214728
0.00194571
0.00201326
0.00206517
0.00205466
0.00214928
0.00207842
0.00201206
0.00205291
0.0018984
0.00193607
0.00205494
0.00210587
0.00210407
0.00203648
0.00219298
0.00208985
0.00220394
0.00226515
0.00232915
0.00230089
0.00219842
0.00220124
0.0022103
0.00221829
0.00222351
0.00246636
0.00246962
0.00247542
0.00248615
0.00249291
0.00258268
0.00258326
0.00257666
0.00257305
0.00257172
0.0023495
0.00234079
0.00232967
0.00232296
0.00235631
0.00250112
0.00253089
0.00253821
0.0025392
0.00253922
0.00263282
0.00263154
0.00263145
0.00262905
0.00259841
0.00245053
0.0024481
0.00245656
0.00246804
0.00247626
0.00260689
0.00260597
0.00260454
0.0025958
0.00256602
0.00245542
0.00246845
0.00247519
0.00248005
0.00248286
0.00222404
0.00222175
0.00221691
0.00220672
0.0021803
0.0021077
0.00210755
0.00211977
0.00212312
0.00212144
0.00211816
0.00212359
0.00212178
0.00211797
0.00211289
0.00221429
0.00221966
0.00222588
0.00223415
0.00216102
0.00215794
0.00215166
0.00213995
0.00211223
0.00218774
0.00229884
0.00233867
0.00235247
0.0023636
0.00237224
0.00241283
0.00240266
0.00239263
0.0023831
0.00233591
0.00217841
0.00212783
0.00217312
0.00218402
0.00219138
0.00220039
0.00228183
0.00226517
0.00224641
0.00223007
0.00227438
0.00229673
0.00231365
0.00232527
0.00227002
0.00225277
0.00223518
0.00221047
0.00212666
0.00221138
0.00237378
0.00223277
0.00211499
0.00220799
0.00233233
0.00219627
0.00204785
0.00211321
0.00224467
0.00213575
0.00209641
0.00216185
0.00197562
0.00201415
0.00214717
0.00231683
0.00228596
0.00216242
0.00208929
0.00223214
0.00197036
0.00199873
0.00194277
0.00182325
0.00161947
0.00185178
0.00198237
0.00189672
0.00193817
0.00199334
0.00202853
0.00198996
0.00187818
0.00199069
0.00199012
0.00183618
0.00208783
0.00204351
0.00211983
0.00213955
0.00223118
0.0021699
0.00215423
0.00214991
0.00214845
0.00222116
0.00222405
0.00223055
0.00224326
0.00224642
0.00237947
0.00236889
0.00235466
0.00234714
0.00234332
0.00213268
0.00212915
0.0021232
0.00211557
0.00211319
0.00227946
0.00224918
0.0022359
0.00223114
0.00222933
0.00232519
0.00232676
0.00232978
0.00233555
0.00233703
0.00238329
0.00238357
0.00238219
0.00238382
0.00238527
0.00235219
0.00234664
0.00233675
0.00232473
0.00231846
0.00241757
0.00243388
0.00244958
0.00245967
0.00246568
0.00264485
0.00264219
0.00264077
0.00263868
0.00261652
0.00263752
0.00265565
0.00266032
0.00266333
0.00266529
0.00275816
0.00275374
0.00274777
0.00273783
0.00270457
0.00274816
0.0027898
0.00280415
0.00281219
0.00281741
0.0026251
0.00261414
0.00259945
0.00258558
0.00256541
0.00258433
0.0026351
0.00265204
0.00265893
0.0026624
0.00256736
0.00256602
0.00256153
0.00254978
0.00250882
0.00264633
0.00272154
0.00274411
0.00274842
0.00274811
0.00235242
0.00233514
0.00231507
0.00229995
0.00229977
0.00233215
0.00235687
0.00237975
0.00237311
0.00234996
0.00232612
0.00229717
0.00222421
0.00233761
0.00237573
0.00239293
0.0024128
0.00242951
0.00261023
0.0026064
0.0025991
0.0025868
0.00255821
0.002538
0.00263407
0.00266137
0.00267751
0.00269128
0.00244545
0.00242202
0.00239775
0.00238072
0.0022616
0.00228754
0.00231472
0.00234424
0.00230801
0.00228193
0.00225553
0.00222595
0.00232355
0.00234196
0.00236236
0.00238016
0.0026943
0.00269269
0.00268667
0.00266133
0.00257032
0.0022791
0.0021598
0.00220432
0.00230811
0.00241985
0.00223888
0.00220575
0.00242564
0.00230441
0.00217548
0.0021075
0.00214757
0.00228361
0.00213204
0.00224552
0.00245488
0.00238727
0.00216724
0.0022183
0.00237643
0.00212347
0.00205828
0.00201551
0.00202866
0.00185906
0.00195012
0.00189458
0.00176137
0.00181325
0.00197335
0.00195856
0.00184931
0.00218295
0.00233056
0.00225107
0.00221961
0.00215744
0.00208521
0.00200501
0.00192272
0.00178697
0.00163144
0.00155699
0.00157692
0.00158819
0.00159228
0.00159285
0.00193415
0.00193304
0.00193544
0.00194603
0.0019552
0.00194009
0.00195308
0.00196764
0.00197708
0.00198227
0.00225349
0.00225103
0.00224988
0.00225096
0.00222856
0.00227043
0.00234006
0.00234514
0.00234097
0.00233841
0.00218052
0.00217772
0.00217128
0.00215894
0.00211742
0.00241437
0.00243555
0.00243641
0.00243835
0.002441
0.00254505
0.00254661
0.00254923
0.00254578
0.00249387
0.00237593
0.00241472
0.00242806
0.00243549
0.00243883
0.00257581
0.0025702
0.00256397
0.00256088
0.0025558
0.00256224
0.00259131
0.00260999
0.0026224
0.00262894
0.0028925
0.00288949
0.00288731
0.00288147
0.00283319
0.00292265
0.00296508
0.00297295
0.0029773
0.00298158
0.00284038
0.00282977
0.00281466
0.00279673
0.00275095
0.0027918
0.00283909
0.00285355
0.00286023
0.00286326
0.00262588
0.0026104
0.00259112
0.00257757
0.00258103
0.00277745
0.00281614
0.00282619
0.00283461
0.00284221
0.00280725
0.00280318
0.00279517
0.00277895
0.00273468
0.00287126
0.00289382
0.00290366
0.0029137
0.00292231
0.00277134
0.00276619
0.00276007
0.00275128
0.00272826
0.00249826
0.00252691
0.00254341
0.00255743
0.00256818
0.00250027
0.00249326
0.00248547
0.00247587
0.00244799
0.00229031
0.00215479
0.00216338
0.00217493
0.00218658
0.00220094
0.00232095
0.0023088
0.00229652
0.00229059
0.00235758
0.00237233
0.0023897
0.00240417
0.00231537
0.00229399
0.00227386
0.0022493
0.00220635
0.00233663
0.00231635
0.00220819
0.00215408
0.00226698
0.00230409
0.00213507
0.00220906
0.00241806
0.00242522
0.00217275
0.00211411
0.00218079
0.00229181
0.00211999
0.00215649
0.00237015
0.00209228
0.00205116
0.00209493
0.0021868
0.00224898
0.00212314
0.00219467
0.0024141
0.00203812
0.00203681
0.00215965
0.00230302
0.00224473
0.00241302
0.00249188
0.00249545
0.00239721
0.00224169
0.00206751
0.00188251
0.00168329
0.0015125
0.00131612
0.00114984
0.00109626
0.00111959
0.00112363
0.00112056
0.00111651
0.00137396
0.00137399
0.00137636
0.0013838
0.00138077
0.00155014
0.00157819
0.001591
0.00159451
0.00159406
0.001875
0.00187342
0.00187455
0.00187865
0.00186202
0.00202313
0.00202382
0.00202047
0.0020204
0.00202084
0.00203144
0.00202823
0.00202457
0.00202138
0.00200216
0.0022456
0.00224535
0.00224486
0.00224849
0.00225218
0.00229833
0.00229342
0.00228775
0.00228183
0.00226412
0.00248371
0.00248208
0.00248541
0.00249205
0.00249733
0.00266278
0.00265908
0.00265108
0.00263679
0.00261049
0.0027235
0.00273959
0.00274883
0.00275883
0.00276673
0.00291873
0.00291419
0.00290808
0.00289564
0.00284455
0.00288833
0.00292331
0.00293529
0.00294261
0.00294806
0.0029313
0.00292371
0.00291258
0.00290107
0.00288409
0.00280804
0.00284436
0.00286283
0.00288084
0.00289495
0.00307018
0.00306396
0.00305833
0.00304823
0.00300477
0.0028665
0.00284643
0.00284978
0.00274984
0.00285855
0.00290853
0.00291659
0.00291725
0.00291815
0.00281163
0.00280583
0.0027964
0.00278384
0.00276947
0.00291588
0.00294119
0.00294804
0.00295222
0.00295609
0.00299668
0.00299434
0.00299157
0.00298179
0.00294468
0.00286216
0.00289467
0.00290303
0.00290866
0.00291303
0.00268762
0.00267744
0.00266592
0.00265839
0.00265971
0.00262904
0.00264912
0.00265841
0.00266529
0.00266999
0.00247096
0.00246848
0.00246455
0.00245738
0.00244569
0.00223119
0.0021166
0.00213472
0.00214822
0.0021601
0.00217327
0.00226258
0.00225388
0.00224236
0.00223444
0.00222687
0.00223148
0.00223928
0.0022459
0.00217271
0.00216922
0.00216519
0.00215599
0.00213855
0.00223446
0.00229047
0.00217727
0.0021523
0.00226481
0.00237955
0.0024773
0.00248979
0.00245097
0.00246679
0.00247396
0.00247604
0.0024773
0.00234521
0.00234268
0.00233909
0.00233845
0.00236086
0.00225643
0.00227593
0.0022772
0.0022725
0.00226778
0.00220367
0.00220456
0.00220666
0.00220747
0.00221238
0.00210419
0.00203473
0.00203076
0.00203041
0.0020297
0.00203041
0.0021031
0.00210523
0.00210667
0.00210533
0.00217129
0.00217114
0.0021743
0.00217729
0.00210083
0.00209978
0.00209915
0.00209613
0.00209257
0.00218746
0.00225178
0.00211353
0.00207344
0.00213258
0.00213961
0.00207579
0.00205311
0.00208395
0.00206967
0.0020396
0.00201429
0.00199996
0.00185868
0.00195386
0.0020054
0.00204637
0.00202075
0.0020068
0.00202746
0.00207343
0.00209241
0.00205147
0.00206583
0.00208833
0.00213893
0.00207715
0.00190489
0.00176203
0.00164995
0.0019005
0.00194949
0.00184352
0.00221701
0.00207055
0.00196253
0.00193648
0.00176619
0.00189233
0.00181345
0.00159207
0.00130203
0.00171425
0.00173455
0.00135839
0.00138503
0.00176393
0.00184826
0.00158826
0.00144374
0.0017805
0.00173122
0.00134456
0.00139181
0.00176291
0.00180419
0.00139302
0.00170672
0.00192757
0.00185383
0.00154997
0.00159133
0.0018854
0.00190518
0.00161742
0.00156214
0.0018913
0.0019129
0.00160534
0.00174776
0.00178777
0.0017416
0.00178116
0.00171405
0.00170307
0.0017025
0.0017015
0.00178771
0.00178714
0.00178715
0.0017969
0.00185288
0.00213745
0.00207472
0.00205179
0.00203748
0.00202839
0.00184186
0.00183956
0.001838
0.00184945
0.00192505
0.00209371
0.00206174
0.00204208
0.00203052
0.00202407
0.00193713
0.00193112
0.00192511
0.00193021
0.00198902
0.00190972
0.00187848
0.0017597
0.00182142
0.00177105
0.00176269
0.00176286
0.00176269
0.00185469
0.00185583
0.00185618
0.00185797
0.0018845
0.00218167
0.00213689
0.00211758
0.00210889
0.00210469
0.00194367
0.00194067
0.0019375
0.00194455
0.00200136
0.00215061
0.00213623
0.00212104
0.00211218
0.00210721
0.00193741
0.00193501
0.00193302
0.00194126
0.0020035
0.00198529
0.00197327
0.00192048
0.00196203
0.00195482
0.00188404
0.00187345
0.0018779
0.00188335
0.00212986
0.00213604
0.0021461
0.00216222
0.00216646
0.00223848
0.00220897
0.00219044
0.00218221
0.00217853
0.00200673
0.002002
0.00199639
0.0019993
0.0020422
0.00200982
0.0019687
0.00196659
0.00196959
0.00197106
0.00205804
0.00220264
0.00214456
0.00214035
0.00198475
0.00192675
0.00188101
0.001881
0.00188882
0.00189408
0.0023056
0.00230752
0.00231751
0.00233847
0.00234551
0.00225997
0.00224993
0.00223804
0.00223516
0.00223679
0.00197957
0.00197582
0.00196863
0.00195826
0.00195827
0.00205373
0.00202989
0.00201559
0.00201019
0.00200897
0.00161063
0.00160848
0.00160222
0.00158897
0.00156293
0.00155154
0.00157268
0.00156754
0.00156275
0.00155983
0.001417
0.00141899
0.00142229
0.00143045
0.00143401
0.00122204
0.00123898
0.00123346
0.00123116
0.00123145
0.00118537
0.0011934
0.0012044
0.00121064
0.00118824
0.000927286
0.000894823
0.000886487
0.000883926
0.00088271
0.000880842
0.000880539
0.000882643
0.000889241
0.000914429
0.00111158
0.00111105
0.00111324
0.00110876
0.00110168
0.00130232
0.00130224
0.00130397
0.00131183
0.00132682
0.00154092
0.00152644
0.00152333
0.00152474
0.00152694
0.00178028
0.00178333
0.00178379
0.00177545
0.00174646
0.0020508
0.00207216
0.00206718
0.00205902
0.00205446
0.00206117
0.00206596
0.00206647
0.00205659
0.00203522
0.00230234
0.00230514
0.00230014
0.0022969
0.00229706
0.00260232
0.00260276
0.00260397
0.00259889
0.00255813
0.00254707
0.00256672
0.00257913
0.00258507
0.00258657
0.00270069
0.00269174
0.00268264
0.00267946
0.00269653
0.00274011
0.00276203
0.00276764
0.00276922
0.00277034
0.00283992
0.00283813
0.00283583
0.00283158
0.00281209
0.00273428
0.00273923
0.00274661
0.00275336
0.00275824
0.00282632
0.00281959
0.00281241
0.00280881
0.0028029
0.00277176
0.00276791
0.00277136
0.00277853
0.00278448
0.00270534
0.00270454
0.00270233
0.00269784
0.00269953
0.00255667
0.00255367
0.00255665
0.00255853
0.00255907
0.00253126
0.00253228
0.00253741
0.0025541
0.00259015
0.00246907
0.00243765
0.00242208
0.00241598
0.0024136
0.00227415
0.00227599
0.00228107
0.00229571
0.00233485
0.00224118
0.00220172
0.00219642
0.00219601
0.00219674
0.00212653
0.00212761
0.0021301
0.00213543
0.00215896
0.00201979
0.00197151
0.00197597
0.0019777
0.00197978
0.00198068
0.00205686
0.00206109
0.00206543
0.00205932
0.00210189
0.00209985
0.00209701
0.00209498
0.00201873
0.00201829
0.00201848
0.00202251
0.00204297
0.0021038
0.00208486
0.00203119
0.00204833
0.00211412
0.0022673
0.00209525
0.00202137
0.002043
0.00190376
0.00198092
0.00195698
0.00186312
0.00183881
0.00191159
0.00196704
0.00193598
0.00195312
0.00198564
0.00201946
0.00200333
0.00191947
0.00197635
0.00198577
0.00192777
0.00191519
0.00195609
0.00194794
0.00193809
0.00185623
0.00176154
0.00174298
0.00177366
0.00183837
0.0019084
0.00194138
0.00189904
0.00175805
0.00154215
0.00129064
0.00104314
0.000846839
0.000697033
0.000599335
0.000670764
0.000647611
0.000642163
0.000641038
0.000640463
0.00077478
0.000784194
0.000793742
0.000799308
0.00079964
0.000964407
0.000946288
0.000933655
0.000924859
0.000919511
0.00102503
0.00103577
0.00104616
0.00104812
0.00103783
0.00112862
0.00107747
0.00107121
0.00107598
0.00108094
0.0013752
0.00138511
0.00139447
0.00139161
0.00137374
0.00155126
0.00154385
0.00154165
0.00154369
0.00154524
0.0018092
0.00180569
0.00180203
0.0018026
0.00181919
0.00188265
0.00189981
0.00189794
0.00189437
0.00189181
0.00197255
0.00197888
0.00198289
0.00197467
0.00194561
0.00213379
0.00211414
0.00211636
0.00212734
0.00213676
0.00241861
0.00241372
0.00240949
0.00240767
0.00241191
0.00241297
0.00242944
0.00243433
0.00243474
0.00243512
0.002409
0.00240952
0.00240776
0.00240042
0.00239629
0.00259756
0.00258291
0.00257907
0.00258637
0.00259497
0.00271654
0.00271108
0.00270581
0.00270774
0.00271963
0.00259481
0.00259596
0.00259788
0.00259832
0.00259733
0.00263683
0.00263736
0.00263825
0.00263831
0.00263457
0.00251554
0.00247762
0.0024728
0.00247508
0.00247767
0.00263806
0.00263783
0.0026421
0.00265593
0.00267177
0.00249385
0.00248578
0.00248451
0.00248196
0.00247981
0.00237521
0.00237635
0.00237694
0.0023755
0.00238969
0.00225089
0.00223622
0.0022392
0.0022424
0.00224412
0.00217972
0.00217782
0.00217481
0.00216817
0.00216117
0.00194787
0.00195828
0.00196996
0.00197726
0.00198116
0.00206972
0.00206647
0.00206104
0.00204861
0.00201267
0.00216768
0.00215054
0.00213875
0.00213098
0.00212672
0.00201362
0.00202333
0.00203336
0.00203315
0.0019633
0.0019634
0.00196475
0.00196493
0.00196952
0.00196814
0.0019653
0.00196334
0.00197468
0.00197738
0.00196966
0.0019614
0.00218668
0.00218977
0.00219625
0.00220044
0.00217779
0.00193654
0.00197904
0.0020344
0.00196261
0.00190272
0.00201266
0.00200354
0.00189874
0.00186233
0.00201052
0.00202053
0.00202041
0.00201615
0.0020134
0.0018789
0.0018771
0.00187229
0.00186608
0.00198334
0.0019844
0.00197433
0.00196731
0.00181549
0.00181596
0.00181457
0.00180727
0.00180516
0.00210937
0.00201972
0.00200149
0.00199009
0.00198368
0.00198925
0.001991
0.00199451
0.00200536
0.00214835
0.00188674
0.00197722
0.00195603
0.00195367
0.00195331
0.00195121
0.00194245
0.00195071
0.00195994
0.00195768
0.001925
0.00193655
0.00193606
0.00193561
0.0019516
0.00195285
0.00195357
0.00195213
0.00193595
0.00182538
0.00183257
0.00197831
0.00200971
0.00197374
0.00186975
0.00194867
0.00194462
0.00184501
0.00214855
0.00203014
0.0019839
0.00207344
0.00205359
0.00198279
0.00199526
0.00195258
0.00183506
0.00177657
0.00170863
0.00159955
0.0015362
0.00148523
0.00146519
0.00146651
0.00146703
0.00143042
0.00134201
0.00119488
0.00103655
0.000878072
0.000760332
0.00065193
0.000693128
0.00069734
0.000692984
0.000684518
0.000677579
0.000625615
0.00062372
0.000622452
0.000627827
0.000664142
0.000857856
0.000874549
0.000870191
0.000858273
0.000847039
0.000847787
0.00084658
0.000845031
0.000846763
0.000862923
0.0010711
0.00103719
0.0010294
0.00102838
0.0010286
0.00133195
0.001341
0.00134899
0.00134647
0.00132103
0.00143818
0.00139858
0.00139597
0.00140433
0.0014125
0.00174396
0.00174158
0.00173914
0.00174057
0.00175267
0.00173825
0.0017415
0.00174186
0.00173992
0.00173898
0.00176705
0.00177445
0.0017794
0.00177574
0.0017694
0.00206667
0.00202958
0.00202278
0.00203048
0.0020407
0.00228333
0.00228095
0.00228062
0.00229075
0.00232453
0.00217056
0.00216722
0.00216633
0.00216364
0.00216145
0.00213505
0.00213788
0.00214017
0.00214364
0.00217204
0.00244599
0.00242079
0.00240335
0.00240091
0.00240468
0.00247869
0.00247675
0.00248083
0.00250268
0.00254035
0.00263491
0.00258245
0.00256267
0.00255874
0.00255997
0.00231007
0.00231265
0.00231268
0.002309
0.00232279
0.00231942
0.00230637
0.00231021
0.00231167
0.00231119
0.00225965
0.00226013
0.00226059
0.0022631
0.00228354
0.00220815
0.0021979
0.00219543
0.00219372
0.00219301
0.00215979
0.0021613
0.00216366
0.00216514
0.0021615
0.0020797
0.00208022
0.00207901
0.00207696
0.00207536
0.00196678
0.00196167
0.00195285
0.00193819
0.00192032
0.00187653
0.00186689
0.00187131
0.00187646
0.00187971
0.00204464
0.00205302
0.00206638
0.00208244
0.00209057
0.00192013
0.00195405
0.00195046
0.00194126
0.00193301
0.00191301
0.00191549
0.00191648
0.00191475
0.00191015
0.00201897
0.00199833
0.00199022
0.00198415
0.00198062
0.00190137
0.00172158
0.00202413
0.0019771
0.00174985
0.00219619
0.00175437
0.00179614
0.00236041
0.00181289
0.00179977
0.00257898
0.00175415
0.00213846
0.00192459
0.0024202
0.0019071
0.00184616
0.00166562
0.00152417
0.00135014
0.00124939
0.00116267
0.00109554
0.00102738
0.000943382
0.000837904
0.000740686
0.000637323
0.000570302
0.00051197
0.000528711
0.000523981
0.000519551
0.000514743
0.000510904
0.000477763
0.000485929
0.000493854
0.000499417
0.000508811
0.000678724
0.000645969
0.00063055
0.000625758
0.000625087
0.000798857
0.000804769
0.0008148
0.00083256
0.000868274
0.000928278
0.000902806
0.000896749
0.000887982
0.000878728
0.00117086
0.00117021
0.00117606
0.00120117
0.00125712
0.00151557
0.00146138
0.00143979
0.00143129
0.00142795
0.00150983
0.0015173
0.0015247
0.00153134
0.00156754
0.00192645
0.00187529
0.00185177
0.00184882
0.00185258
0.00207068
0.00207192
0.00207894
0.00209974
0.00214953
0.0018529
0.00181847
0.00181291
0.00181211
0.00181169
0.00198612
0.00198737
0.00199021
0.00199552
0.00201525
0.00211027
0.00209515
0.00208838
0.00208392
0.00208132
0.00216125
0.00216725
0.00217626
0.00218165
0.00217299
0.00215706
0.00216061
0.00215392
0.00214431
0.00213742
0.00219044
0.00219984
0.0022135
0.00222337
0.00221507
0.0021067
0.00209456
0.00209107
0.00208975
0.00208928
0.00198314
0.0019833
0.00198283
0.00198361
0.00199221
0.0020354
0.00204848
0.00205218
0.00205469
0.00205684
0.00202979
0.0020316
0.00203396
0.00203393
0.00201342
0.001897
0.00187535
0.0018734
0.00187667
0.00187934
0.00207505
0.00208679
0.00210431
0.00211683
0.00208846
0.00186306
0.00179416
0.00179121
0.00180107
0.00180871
0.00188386
0.00188241
0.00187929
0.00187941
0.00190494
0.00184072
0.00180187
0.00179471
0.00179276
0.0017907
0.00192637
0.00193579
0.00194936
0.00196238
0.00196498
0.0018159
0.00186997
0.00186338
0.00184936
0.00183807
0.0019022
0.00191308
0.0019307
0.00194245
0.00188076
0.00178836
0.00178624
0.00178984
0.00179008
0.00178859
0.00198237
0.00198986
0.00199719
0.00199727
0.00197732
0.00197836
0.00187413
0.00179242
0.00198774
0.0019895
0.00180691
0.00183648
0.00183719
0.00183219
0.001827
0.00195407
0.00196039
0.00196669
0.00197326
0.00199316
0.00185262
0.00180995
0.0019527
0.00192096
0.00177637
0.00186945
0.00194964
0.00194
0.00181838
0.00186579
0.00195961
0.00198622
0.0020132
0.00225254
0.00208095
0.0020567
0.00219925
0.00215927
0.00203886
0.00195505
0.00187827
0.00193442
0.00198529
0.00200988
0.00201199
0.00202307
0.0020247
0.00201608
0.00200702
0.00189658
0.00195528
0.00196916
0.00189245
0.00196557
0.00199341
0.00202102
0.00200441
0.00200592
0.00202872
0.00198516
0.00197449
0.00201511
0.00200042
0.00196877
0.00194699
0.00191282
0.00194341
0.00176148
0.00139397
0.00126081
0.0017133
0.0017372
0.00131676
0.00144944
0.00177359
0.00186392
0.00180647
0.00149399
0.00174609
0.00175909
0.00136135
0.00124441
0.00169214
0.00171449
0.00132218
0.00139836
0.00174169
0.00178459
0.00150438
0.00187777
0.00190112
0.00190306
0.00189839
0.00219947
0.00206118
0.00185369
0.00168417
0.00174555
0.00136196
0.000788492
0.00025571
-3.47182e-05
4.24486e-05
0.000510348
0.00101676
0.00166134
0.00195797
0.00208924
0.0021882
0.00220686
0.00221575
0.00222188
0.00243102
0.00244181
0.00245472
0.00246817
0.0024847
0.00205816
0.00208004
0.00208139
0.0020803
0.00207813
0.0023831
0.00240006
0.00242147
0.0024335
0.00242098
0.00197882
0.00195368
0.00194795
0.00194778
0.00194697
0.002341
0.00236035
0.0023885
0.0024135
0.00239163
0.00237502
0.00242521
0.00242655
0.00241637
0.00240644
0.00186047
0.00186531
0.00186662
0.0018617
0.00183043
0.00169259
0.00174507
0.0017452
0.00174231
0.00173945
0.00204323
0.00205254
0.00206502
0.00208253
0.00214687
0.00172114
0.00168206
0.00167589
0.00167465
0.0016714
0.00170338
0.0017054
0.00170851
0.00171664
0.00174378
0.00209218
0.00202262
0.00199707
0.0019827
0.00197347
0.00194484
0.00195549
0.00197355
0.0020002
0.00202387
0.00207369
0.00199359
0.00197185
0.00196248
0.00195703
0.00200885
0.00201746
0.00203311
0.00205713
0.00209007
0.00191668
0.00185549
0.00184863
0.00185247
0.00185567
0.00179358
0.00175565
0.00175279
0.00175466
0.00175492
0.00172753
0.00172539
0.00172002
0.00171883
0.00174619
0.0022038
0.00218754
0.00216614
0.002152
0.00214505
0.00203737
0.00203716
0.002041
0.00206792
0.00219259
0.00196809
0.00197111
0.00197899
0.0019852
0.00198854
0.0020005
0.00199609
0.00198691
0.0019751
0.00196372
0.00201455
0.00195019
0.00193271
0.00174702
0.0016387
0.00163334
0.00164448
0.00165315
0.00165744
0.00213819
0.00214213
0.00215196
0.00217086
0.00217512
0.00217013
0.00214323
0.00212152
0.00211139
0.00210694
0.00168163
0.00168006
0.00167521
0.00166389
0.00163635
0.0016898
0.00170521
0.0016979
0.00169025
0.00168492
0.00156799
0.00157332
0.00158505
0.00160133
0.00158604
0.00135716
0.00138464
0.0013779
0.00137236
0.00137074
0.00104973
0.00104913
0.00104426
0.00103183
0.0010062
0.000959666
0.000979598
0.000988874
0.00099237
0.000991972
0.000866205
0.000869244
0.000874777
0.000883154
0.000882712
0.000817254
0.000815064
0.00080857
0.000804129
0.000801831
0.000756375
0.000763279
0.000773014
0.00078459
0.000795935
0.000652625
0.00065801
0.000658539
0.000655172
0.000650601
0.000564936
0.000565779
0.00056712
0.000570358
0.000576905
0.000587677
0.000569692
0.000563523
0.000560443
0.000558603
0.000573269
0.000574482
0.000577805
0.000585725
0.000605702
0.000712731
0.000724084
0.000720451
0.000711233
0.000702667
0.000674668
0.000676105
0.000678043
0.000682563
0.000701119
0.000832912
0.000800362
0.000794245
0.000794681
0.000795236
0.000793355
0.000683191
0.000721266
0.000690894
0.000680871
0.000677027
0.000675429
0.000668001
0.00061357
0.000620391
0.000638179
0.000639536
0.0006353
0.000630874
0.000553944
0.000552131
0.000550631
0.000554121
0.000583424
0.000589956
0.000561582
0.000555985
0.000554809
0.000554498
0.000581294
0.000579783
0.000578501
0.000580348
0.000599467
0.000524357
0.000508586
0.00050762
0.000511162
0.000514057
0.000558645
0.000559286
0.000561538
0.000569455
0.000592613
0.000687114
0.000687695
0.000682112
0.000670937
0.000660644
0.000745721
0.000741959
0.000740185
0.000749278
0.00078879
0.000993579
0.000958561
0.000944455
0.000938524
0.000935813
0.00110938
0.00111982