/*--------------------------------*- C++ -*----------------------------------*\
  =========                 |
  \\      /  F ield         | OpenFOAM: The Open Source CFD Toolbox
   \\    /   O peration     | Website:  https://openfoam.org
    \\  /    A nd           | Version:  7
     \\/     M anipulation  |
\*---------------------------------------------------------------------------*/
FoamFile
{
    version     2.0;
    format      ascii;
    class       volVectorField;
    location    "0.5";
    object      wallShearStress;
}
// * * * * * * * * * * * * * * * * * * * * * * * * * * * * * * * * * * * * * //

dimensions      [0 2 -2 0 0 0 0];

internalField   uniform (0 0 0);

boundaryField
{
    outlet1
    {
        type            calculated;
        value           uniform (0 0 0);
    }
    Wall
    {
        type            calculated;
        value           nonuniform List<vector> 
40276
(
(0.000247229 5.86567e-05 0.000223599)
(-0.000185758 -9.89495e-06 0.000410988)
(-0.000190042 -9.03312e-06 0.000404023)
(0.000125856 -0.000105038 0.000123986)
(0.000102401 -7.17437e-05 0.000116814)
(0.000104109 -4.81343e-05 0.000161737)
(0.000111374 -2.87602e-05 0.000191439)
(0.000149644 -2.07012e-05 0.000227479)
(0.000122635 -5.58504e-06 0.000216036)
(0.000130284 -1.93528e-05 0.000236988)
(0.000506026 1.99907e-05 0.000338717)
(0.000579735 -2.71832e-05 0.000365629)
(0.000602942 -1.55153e-05 0.000967175)
(0.000581108 -1.20043e-05 0.000897535)
(0.000288636 1.48141e-05 0.000261912)
(0.000270322 3.22107e-05 0.000301191)
(0.00028884 5.98648e-05 0.000208182)
(0.000293963 4.71021e-05 0.000145255)
(4.34618e-05 -0.000213386 7.97402e-05)
(6.22484e-05 -0.000258946 0.000112773)
(-6.83388e-05 1.81864e-05 0.000159741)
(-9.22493e-05 2.19658e-05 0.000152062)
(-7.8025e-05 2.12652e-05 5.00619e-05)
(-9.36408e-05 2.01021e-05 4.58527e-05)
(-7.10005e-05 1.67779e-05 3.26825e-05)
(-8.3385e-05 1.83004e-05 2.65062e-05)
(0.000113933 -3.08559e-05 -3.39083e-05)
(9.81749e-05 -2.39262e-05 -3.11528e-05)
(-7.83387e-05 2.58622e-05 9.12925e-05)
(-3.31968e-05 1.04294e-05 8.5375e-05)
(-0.000202675 6.63405e-05 0.000134408)
(-0.000241523 8.3535e-05 0.000140612)
(-5.24866e-05 -3.53452e-06 0.000159414)
(-4.6739e-05 -5.2407e-06 0.000148127)
(-2.0513e-05 2.06704e-05 2.27506e-06)
(-1.7683e-05 2.08018e-05 2.43673e-06)
(0.000490531 2.77587e-05 3.61187e-05)
(0.00046989 5.64146e-06 4.39937e-05)
(0.00104949 0.000231294 -1.53554e-05)
(0.00132098 0.000352523 -8.32897e-05)
(0.000672115 4.05532e-05 0.000112769)
(0.000577882 2.51254e-05 0.000152808)
(0.000142458 -1.63045e-05 -0.000389801)
(0.000142454 -1.58052e-05 -0.000381691)
(0.000123805 2.96502e-06 -0.000386267)
(9.99868e-05 -8.73041e-06 -0.000345674)
(7.14328e-05 4.54028e-06 -0.000355658)
(6.46463e-05 -4.92847e-06 -0.000308395)
(3.27802e-05 -1.21201e-06 -0.00028262)
(1.4263e-05 1.49374e-06 -0.000248874)
(1.2064e-05 -5.30535e-06 -0.000217537)
(-3.52431e-06 2.27752e-06 -0.000224022)
(-6.14119e-06 -3.23066e-06 -0.000190835)
(-1.46501e-05 3.84111e-06 -0.000190171)
(0.000570751 8.41295e-05 0.000244329)
(0.000569401 9.86708e-05 0.000193838)
(-0.00013544 5.21688e-05 0.000194199)
(6.59168e-05 2.30595e-05 0.000196338)
(-0.00014259 5.17063e-05 0.000195573)
(-0.000365433 0.000105228 -0.000345982)
(-0.000399606 7.34359e-05 -0.000366573)
(1.95707e-05 3.57633e-05 0.000299225)
(-1.30783e-05 -1.19893e-05 0.000230807)
(3.63035e-08 1.6592e-07 -1.02818e-06)
(3.88791e-06 1.19714e-09 3.45208e-06)
(2.62383e-06 1.12627e-07 2.52417e-06)
(1.18297e-06 1.60243e-07 1.74809e-06)
(8.39028e-08 1.65929e-07 -1.01083e-06)
(-8.85647e-05 -7.8297e-06 -8.14787e-05)
(-9.43292e-05 -1.69386e-06 -8.48403e-05)
(-2.26874e-05 4.31491e-06 -0.000161)
(-1.5553e-05 -3.40403e-06 -0.000170242)
(-3.4904e-05 2.47615e-06 -2.92354e-05)
(-3.45173e-05 2.51026e-06 -2.74382e-05)
(-3.06378e-05 1.84688e-06 -2.44317e-05)
(-2.95819e-05 2.92487e-06 -2.27239e-05)
(-3.34458e-05 1.68115e-06 -2.54148e-05)
(7.77314e-05 -8.36873e-06 2.90639e-05)
(7.28163e-05 -7.86255e-06 1.47918e-05)
(2.90305e-06 1.03472e-05 -1.5112e-07)
(3.89367e-06 6.838e-06 -4.56216e-08)
(9.22923e-06 6.18652e-06 -7.1527e-07)
(1.78982e-05 -9.61286e-07 1.22692e-05)
(1.67905e-05 -2.0038e-06 1.22785e-05)
(1.95063e-05 -1.56516e-05 1.32343e-05)
(3.87991e-06 2.59481e-08 4.86966e-06)
(2.57036e-06 1.13019e-07 3.72017e-06)
(4.13788e-06 -1.00407e-07 6.04527e-06)
(1.72934e-05 -1.69003e-05 1.21603e-05)
(1.00958e-05 -2.21137e-05 8.33358e-06)
(7.72905e-06 -2.2056e-05 7.06497e-06)
(-2.58767e-05 -4.29196e-06 -2.34998e-05)
(2.95248e-06 8.82005e-08 4.86546e-06)
(3.66573e-06 -1.91814e-07 6.5867e-06)
(2.6626e-06 4.34925e-08 5.43118e-06)
(1.7954e-06 4.28279e-08 5.49966e-06)
(6.43083e-07 -2.34721e-08 5.34514e-06)
(-6.88446e-07 -7.70368e-08 5.02334e-06)
(-3.97477e-06 1.34526e-07 2.7934e-06)
(-5.29472e-06 7.98414e-08 2.12199e-06)
(-6.62653e-06 -3.72516e-08 1.35442e-06)
(-1.1135e-05 1.00076e-07 -3.6031e-06)
(-1.18942e-05 -1.14633e-08 -4.72554e-06)
(-2.88312e-05 -2.11338e-06 -2.52077e-05)
(-1.26648e-05 2.65319e-08 -6.06605e-06)
(-1.52953e-05 -2.12402e-06 -1.86885e-05)
(-1.33412e-05 -1.55332e-06 -1.56384e-05)
(-1.30227e-05 -1.47531e-07 -7.2331e-06)
(-1.34157e-05 -1.50734e-07 -8.66842e-06)
(-1.27477e-05 -6.0685e-08 -9.45891e-06)
(-1.3632e-05 -2.51824e-07 -1.03307e-05)
(-1.28361e-05 -1.53657e-07 -1.1383e-05)
(-1.32301e-05 -5.51569e-07 -1.19266e-05)
(-1.27546e-05 -4.58552e-07 -1.34107e-05)
(-1.26713e-05 -1.25585e-06 -1.29997e-05)
(-6.42663e-06 -1.55009e-06 -2.24889e-05)
(-5.00104e-06 -2.22469e-06 -2.31515e-05)
(-5.02011e-06 -2.48502e-06 -2.20721e-05)
(-0.000275248 -6.4256e-05 0.00049782)
(-0.000279012 -6.25005e-05 0.000451382)
(-3.14141e-05 -1.08334e-06 2.82947e-06)
(-2.38902e-05 -1.35063e-06 1.88612e-06)
(-5.51736e-05 -1.25497e-06 1.39996e-05)
(-5.06088e-05 -2.94586e-06 1.23423e-05)
(-7.78156e-06 2.29241e-06 -9.45067e-06)
(-4.77862e-06 2.98969e-06 -5.7629e-06)
(-0.000130535 2.11902e-05 0.000188608)
(-0.000113998 2.94464e-05 0.000161146)
(-0.000162948 -2.02001e-05 0.000278993)
(-0.000142544 -2.64016e-05 0.000240411)
(-0.00010531 -8.52778e-06 0.000176854)
(-9.23299e-05 -1.16223e-05 0.000152453)
(-0.000158178 9.63575e-05 0.000472471)
(-0.000220429 0.000174149 0.000661743)
(7.54633e-06 -1.17162e-05 0.000182843)
(2.54371e-08 -4.89285e-06 0.000154322)
(-0.000104695 2.84438e-05 0.000190318)
(-5.88828e-05 2.33356e-06 0.000165115)
(-0.000181016 -5.64879e-05 0.000492796)
(-0.000181214 -3.90491e-05 0.000494122)
(-0.000181523 -4.38802e-05 0.000528708)
(-0.000198342 -1.90151e-05 0.000530424)
(-0.000563195 -2.37494e-06 -0.000152621)
(-0.000645652 -1.25915e-06 -0.000184781)
(-2.27326e-05 -7.96509e-05 9.94848e-06)
(-2.65246e-05 -7.8916e-05 1.19146e-05)
(-2.14671e-05 -4.41979e-05 6.5976e-05)
(-2.52532e-05 -5.4026e-05 8.23951e-05)
(-2.91083e-05 -5.28677e-05 6.64899e-05)
(-2.32578e-05 -4.07339e-05 5.41054e-05)
(-1.54567e-05 -8.61172e-05 8.48623e-06)
(-1.9884e-05 -9.8323e-05 6.53128e-06)
(-2.34474e-05 -8.34155e-05 8.81346e-06)
(-2.18414e-05 -8.64238e-05 9.20683e-06)
(-2.31339e-05 -0.00012863 -1.56094e-05)
(-1.99719e-05 -0.000111404 -1.4126e-05)
(-7.63786e-06 -5.66145e-05 -3.31769e-06)
(-9.87432e-06 -5.053e-05 -4.75691e-06)
(-6.09589e-05 -3.18086e-05 9.45032e-05)
(-5.57644e-05 -3.36466e-05 8.9326e-05)
(0.000101334 2.01492e-06 -0.000214513)
(0.000108417 -6.69737e-06 -0.000196767)
(-0.000138507 -5.66201e-05 -1.24853e-05)
(-0.000137405 -6.31691e-05 -1.46484e-05)
(-0.000292189 -4.81129e-05 0.00016867)
(-0.000314685 -5.21761e-05 0.00016471)
(-0.000287875 -7.06547e-05 -2.57171e-05)
(-0.000281248 -5.83538e-05 -3.47602e-05)
(-0.000185632 0.00018057 0.000252085)
(-0.000181289 0.000227482 0.000236014)
(-0.000257161 -4.15489e-05 1.38183e-05)
(-0.000134757 -4.4425e-05 -1.88184e-05)
(-0.000216416 -7.57206e-05 7.79675e-05)
(-0.000186525 -7.45371e-05 6.59046e-05)
(-0.000236085 -4.88888e-05 6.10735e-05)
(-6.89131e-05 -4.00214e-05 -7.13107e-06)
(-3.90682e-05 -2.10063e-05 6.04395e-05)
(-3.21917e-05 -1.94883e-05 5.57935e-05)
(0.000599075 -0.000307968 0.000306372)
(0.000558016 -0.000285067 0.00022544)
(0.00052975 -0.000358553 0.000130601)
(0.000487373 -0.000277156 0.000142601)
(0.000471169 -0.000299391 0.000133375)
(0.000261536 -0.000232202 0.000114587)
(0.000361595 -0.000284876 0.000144039)
(0.000272204 -0.000218913 0.000128223)
(0.000465774 -0.00027646 0.000262579)
(0.000488627 -0.000318971 0.000257381)
(0.000495583 -0.000323473 0.000200973)
(0.000388596 -0.000321165 0.00011009)
(0.000491823 -0.000361855 0.000105947)
(0.00038348 -0.000274167 0.000147568)
(0.000162858 -0.000145225 0.000107042)
(0.000251374 -0.000225815 0.000123275)
(0.000195992 -0.000160534 0.000126477)
(0.00015395 -0.000133372 0.000120203)
(9.42461e-05 -4.37086e-05 0.000140303)
(9.76307e-05 3.75001e-05 0.000205066)
(0.000134547 4.85543e-05 0.000209754)
(0.00013627 4.75028e-05 0.000199135)
(0.000137252 4.31028e-05 0.00016322)
(0.000186925 4.91725e-05 0.000171854)
(0.000131003 4.81064e-05 0.00020386)
(0.000126073 4.70881e-05 0.000195823)
(0.000155283 -2.61909e-05 0.000346975)
(0.00013986 -1.79083e-05 0.00034251)
(0.000152698 1.00367e-05 0.000243499)
(0.000185983 -5.82436e-06 0.000305729)
(0.000158285 -1.46249e-05 0.000259844)
(0.000150722 -1.25621e-05 0.000256783)
(0.000177782 -2.18582e-05 0.000328871)
(0.000148812 -2.00966e-05 0.000326128)
(9.46161e-05 -5.2028e-05 0.000273722)
(9.78001e-05 -5.62737e-05 0.000244109)
(0.00012197 -2.09568e-05 0.000233822)
(9.39602e-05 -4.03701e-05 0.000207313)
(9.90248e-05 -5.22188e-05 0.000202359)
(0.000101135 -4.35755e-05 0.000240734)
(4.53473e-05 -5.99719e-05 0.000177901)
(4.29552e-05 -6.76141e-05 0.000166208)
(9.26715e-05 -2.43872e-05 0.000343268)
(7.1894e-05 -2.10606e-05 0.000303392)
(5.55442e-05 -1.51951e-05 0.000274405)
(3.79833e-05 -5.68576e-06 0.00024888)
(0.000101704 -4.04393e-05 0.000342269)
(4.64779e-05 -5.64035e-05 0.000289765)
(1.60422e-05 -4.04656e-05 0.000219582)
(-1.47634e-06 -3.03778e-05 0.000183125)
(1.70678e-06 -4.94857e-05 0.000187278)
(5.63558e-05 1.16728e-05 0.000186852)
(6.5501e-06 -1.47743e-05 0.000161424)
(7.91807e-05 2.76467e-05 0.000172118)
(8.50678e-05 3.13888e-05 0.000160941)
(3.48221e-05 6.39591e-06 0.000137229)
(4.80455e-05 1.74032e-05 0.000141053)
(6.49143e-05 -6.15905e-05 0.000254905)
(3.73934e-05 -5.18908e-05 0.000213567)
(3.41917e-05 -7.37427e-05 0.000218277)
(-2.77693e-05 -7.94949e-05 0.000182602)
(4.48141e-06 -7.27041e-05 0.000146066)
(-2.99785e-05 -6.98155e-05 0.000115828)
(-2.61043e-05 -5.04183e-05 0.000128787)
(-1.45939e-05 -2.86324e-05 0.000116978)
(-5.71257e-05 -6.46607e-05 7.10608e-05)
(-4.61443e-05 -4.04827e-05 5.1161e-05)
(-4.90045e-05 -4.69406e-05 3.18612e-05)
(-4.34718e-05 -3.41656e-05 4.25766e-05)
(-5.29295e-06 -1.14896e-05 7.30284e-05)
(1.37724e-05 2.35989e-06 9.00975e-05)
(1.23659e-05 -4.28764e-06 7.19058e-05)
(0.000325099 4.14088e-06 0.00056981)
(0.000370102 3.25549e-05 0.000674194)
(0.00032462 -2.69467e-05 0.000574891)
(0.000326535 5.57558e-06 0.000569499)
(0.000531537 0.000154989 0.000399544)
(0.000574419 0.000153034 0.000496116)
(0.000437408 0.000154227 0.000418624)
(0.000468005 0.000140105 0.000500398)
(0.000417097 0.000170786 0.000572568)
(0.000414855 0.000155498 0.000601095)
(0.000566177 0.000248912 0.000656529)
(0.000479792 0.000215891 0.000440887)
(0.000548662 0.000221135 0.000572424)
(0.000364632 0.000157728 0.000482336)
(0.000473488 0.000189904 0.000616535)
(0.000609028 0.000208927 0.000392783)
(0.000510989 0.000214654 0.0004698)
(0.000520891 0.000210308 0.000471751)
(0.000532089 0.000199022 0.000659314)
(0.000590511 0.000260141 0.000591594)
(0.000649928 0.000288736 0.000526803)
(0.00059263 0.000277407 0.000505617)
(0.000580824 0.00023397 0.000607906)
(0.000556329 0.00022749 0.000646278)
(0.000548017 7.62581e-05 0.000456103)
(0.000685251 6.9923e-05 0.000477419)
(0.000550597 0.000110048 0.000448463)
(0.000448429 0.000132321 0.000323145)
(0.000539251 0.000117405 0.000407087)
(0.000533698 7.23031e-05 0.000338985)
(0.000402009 3.94349e-05 0.000210814)
(0.000448184 0.000121302 0.000281195)
(0.000508971 9.66284e-05 0.000263973)
(0.000463761 9.27987e-05 0.000238759)
(0.000598473 -8.82842e-05 0.00038828)
(0.00060855 -0.000129213 0.000350218)
(0.00060526 -0.000230473 0.000310827)
(0.00047239 -0.000129048 0.000249516)
(0.000527764 -0.000196272 0.000200036)
(0.000461749 -6.35858e-05 0.000220467)
(0.000567022 -0.000208609 0.00020511)
(0.000374141 -7.77446e-05 0.000141179)
(0.0004598 -0.000161955 0.000109006)
(0.000600098 -0.000310964 0.000114307)
(0.000406619 2.30803e-05 0.000214)
(0.000419308 6.7024e-05 0.000208764)
(0.000403992 -2.38734e-05 0.00013295)
(0.00041112 3.01662e-05 0.000132576)
(0.000581803 0.000210198 0.000317411)
(0.000561194 0.000218999 0.000462583)
(0.000596857 0.000220017 0.000397293)
(0.000597318 0.000169042 0.000269347)
(0.000690785 0.000234751 0.00029953)
(0.00068303 0.000302395 0.00046814)
(0.000568548 0.000246947 0.000499564)
(0.000616073 0.000246523 0.000519309)
(0.000652243 0.000269241 0.000269212)
(0.000607753 0.000228971 0.000429615)
(0.00058877 0.000237691 0.000437036)
(0.000691087 0.000301062 0.000568242)
(0.000712439 0.000300143 0.000401642)
(0.000512391 0.000124886 0.000211741)
(0.000723877 0.000216475 0.000229602)
(0.000523068 9.01773e-05 0.000180737)
(0.000705135 0.000162669 0.000162212)
(0.000691225 0.000264536 0.000245021)
(0.000671419 0.000221906 0.000296035)
(0.00092299 0.000389017 0.000346407)
(0.000711796 0.000250508 0.000187879)
(0.000656075 0.000193391 0.00019049)
(0.000962408 0.000369849 0.000216141)
(0.000742566 0.000383249 0.00033893)
(0.00077439 0.000312741 0.000464961)
(0.000681999 0.000282014 0.00050089)
(0.000846413 0.00036129 0.000384604)
(0.000861712 0.000354241 0.000328266)
(0.00043246 0.000174201 0.000575774)
(0.000447833 0.000185955 0.000571805)
(0.000308696 9.07897e-05 0.000567106)
(0.00045369 0.000171665 0.000661926)
(0.00051391 0.000160972 0.000734974)
(0.000492324 0.000168962 0.00066348)
(0.000437681 0.000154947 0.000596521)
(0.000465539 0.000172341 0.000622348)
(0.000461152 0.000160855 0.000708496)
(0.000417213 5.14389e-05 0.000769545)
(0.000365052 2.99945e-05 0.000701699)
(0.000430267 0.000104568 0.000746772)
(0.000388391 7.69911e-05 0.000691656)
(0.000351203 1.88508e-05 0.000599258)
(0.00046987 0.000160426 0.000635726)
(0.000511676 0.000119706 0.000752579)
(0.0004358 9.51922e-05 0.000691628)
(0.000433265 -4.35347e-05 0.000739084)
(0.000539212 0.000159972 0.000817264)
(0.000417985 7.7284e-05 0.000696473)
(0.000549872 0.000243641 0.000582423)
(0.00061499 0.000262931 0.000631608)
(0.000540402 0.000180406 0.000731358)
(0.000485132 0.000194072 0.000628919)
(0.000571446 0.000237176 0.000634961)
(0.000574066 0.000132357 0.000812729)
(0.00056109 0.000134868 0.000882131)
(0.000447733 3.05706e-05 0.000770889)
(0.00040487 9.84267e-06 0.000691527)
(0.000431162 3.73022e-05 0.000730457)
(0.000503895 9.17786e-05 0.000781686)
(0.000424472 5.45691e-05 0.000682561)
(0.000549277 0.000215467 0.000677381)
(0.000567355 8.40877e-05 0.000863228)
(0.00062358 0.000159869 0.000929258)
(0.0003065 -2.02915e-05 0.000548298)
(0.000317418 2.48847e-05 0.000565858)
(0.000386098 0.000107063 0.000616543)
(0.000397098 5.32426e-05 0.000677838)
(0.00037349 -9.68947e-06 0.000623627)
(0.00046744 5.21142e-05 0.00076367)
(0.000355838 -5.6039e-05 0.000607542)
(0.00035523 -1.12551e-05 0.00060442)
(0.000454459 0.000101346 0.00072096)
(0.000371073 1.21634e-05 0.000628366)
(0.000322673 3.85088e-06 0.000537201)
(0.00038504 -3.58302e-05 0.000625527)
(0.000331102 8.19838e-06 0.000544751)
(0.000367642 3.34281e-06 0.000604216)
(0.000444252 -7.60856e-06 0.00072202)
(0.000343281 4.9901e-05 0.000581044)
(0.000335466 1.37542e-05 0.000547315)
(0.000431166 -9.85125e-05 0.000650642)
(0.000505835 8.65138e-05 0.000818067)
(0.000444984 -7.22742e-05 0.000769429)
(0.000549739 1.14686e-05 0.000908259)
(0.0004223 -3.20868e-05 0.000724251)
(0.000435709 -2.11971e-05 0.00074556)
(0.000563415 0.00011127 0.000839658)
(0.00044561 -2.46458e-06 0.000723972)
(0.000510055 -2.60272e-05 0.000821317)
(0.000539831 -5.62249e-06 0.000881896)
(0.000540114 -2.70669e-05 0.00085466)
(0.000438018 -1.93508e-05 0.000699983)
(0.00049328 -1.57447e-05 0.000779831)
(0.00043719 -3.29535e-05 0.000682412)
(0.000495438 -5.0118e-06 0.000769401)
(0.000623363 0.000232008 0.000706147)
(0.000661025 0.000286046 0.000614926)
(-2.09814e-05 -4.92403e-05 0.000159518)
(0.000619635 0.000187752 0.000819761)
(0.000562256 0.00019687 0.000685137)
(0.000795482 0.000366071 0.00059314)
(0.000679855 0.000320692 0.000576374)
(0.000734761 0.000311762 0.000649829)
(-2.5226e-05 -4.89515e-05 0.000158972)
(0.000640892 0.000243311 0.000733282)
(0.000620943 0.00026765 0.000670881)
(0.000690131 0.000302709 0.000694325)
(0.000621699 0.000205226 0.000823579)
(0.000661713 0.000184645 0.000974221)
(-2.28688e-05 -4.86976e-05 0.000156312)
(0.000502364 8.41168e-05 0.000774814)
(0.000455323 3.67936e-05 0.000771315)
(0.000479781 6.58156e-05 0.000762129)
(0.000568779 2.84111e-05 0.000882377)
(0.000485071 0.000113836 0.000739437)
(-2.53303e-05 -3.82674e-05 0.000159332)
(0.000613576 0.00026355 0.000700034)
(0.000642239 0.000124618 0.000911706)
(0.000699687 0.000206953 0.000970268)
(0.000740087 0.000320093 0.000671847)
(0.000887395 0.000392256 0.000522687)
(0.00100059 0.000460427 0.000451076)
(0.000698175 0.000267507 0.000786297)
(0.000699131 0.000295148 0.000652046)
(0.00076987 0.000409293 0.000488446)
(0.000814864 0.000373763 0.000518869)
(0.000748438 0.000319372 0.000649029)
(0.000756482 0.000339749 0.000722029)
(0.000861815 0.000424841 0.000681579)
(0.000721097 0.000291177 0.000790043)
(0.000706071 0.000213326 0.000930858)
(0.000601599 0.000208219 0.000748721)
(0.000627143 0.000149405 0.000973463)
(0.000514142 0.000116296 0.000755898)
(0.000617037 8.82308e-05 0.000933532)
(0.000747016 0.000315272 0.000870818)
(0.000650419 0.000292173 0.000704417)
(0.000686124 0.000233539 0.000910742)
(0.000537756 0.000126509 0.000845141)
(0.000555039 0.000188861 0.00075363)
(0.000739704 0.000147952 0.00102783)
(0.000662689 9.88712e-05 0.00105247)
(0.000611923 9.96389e-06 0.0009939)
(0.000604969 -2.85102e-05 0.000951557)
(0.000492129 -9.7494e-07 0.000832934)
(0.00047022 2.33593e-05 0.000768782)
(0.000630659 7.88907e-05 0.000929343)
(0.000630342 7.96384e-05 0.000996267)
(0.000599269 -2.2453e-05 0.000948387)
(0.000608437 -1.12313e-05 0.00095877)
(0.000613443 -8.01264e-05 0.000945303)
(0.000595886 -5.70609e-06 0.000901557)
(0.000675308 0.000114946 0.000993612)
(-3.12875e-05 -4.33746e-05 0.000167703)
(0.000509103 -2.8031e-05 0.000841447)
(0.000455399 1.60581e-05 0.000735072)
(0.00067407 0.000114788 0.000998978)
(0.000669048 0.000193405 0.00100476)
(0.000580054 1.43338e-05 0.000962867)
(0.000703614 4.38178e-05 0.00111786)
(0.000538783 -1.24568e-06 0.000849338)
(0.000665359 -1.22625e-05 0.00101955)
(0.000536575 2.52851e-05 0.000844418)
(0.000514064 -5.40585e-05 0.000769049)
(0.000650125 -0.000112929 0.00095873)
(0.000695015 6.68226e-06 0.00110258)
(0.000697579 -1.41767e-05 0.0010895)
(0.000328904 -6.212e-05 0.000460332)
(0.000249462 6.39648e-06 0.000371303)
(0.000268842 3.02759e-06 0.000374199)
(0.000252454 -1.42004e-06 0.000372075)
(0.000186122 2.21073e-05 0.000316991)
(0.000231704 2.24316e-05 0.000355172)
(0.000285077 5.8775e-06 0.000371423)
(0.000223154 3.86856e-05 0.000352494)
(0.000331723 2.04448e-05 0.000576022)
(0.000323821 3.34122e-05 0.000529278)
(-2.30805e-05 -4.19649e-05 0.000152957)
(-2.67323e-05 -4.40205e-05 0.000159853)
(-2.4739e-05 -4.06643e-05 0.000148101)
(-2.62227e-05 -3.7021e-05 0.000148979)
(0.000344467 2.38828e-05 0.000531188)
(0.000306007 5.95091e-05 0.000476242)
(0.00034733 1.55852e-05 0.000467251)
(0.000297208 3.72837e-05 0.000413676)
(0.000344053 -8.58511e-07 0.000452694)
(0.000325771 2.65494e-05 0.000430107)
(-2.96564e-05 -3.64353e-05 0.000154307)
(0.000340028 5.48418e-06 0.000440983)
(-3.49591e-05 -2.91503e-05 0.000164383)
(-3.00649e-05 -3.48175e-05 0.000155454)
(0.000251263 4.64115e-05 0.000250591)
(0.000225206 4.44258e-05 0.000237711)
(0.000228545 3.22123e-05 0.000245658)
(-3.34042e-05 -3.46861e-05 0.000153508)
(-2.64674e-05 -3.85541e-05 0.000163876)
(-2.5878e-05 -4.20554e-05 0.000160433)
(-3.22435e-05 -3.39958e-05 0.000174293)
(-3.37909e-05 -4.25591e-05 0.000181876)
(-2.96379e-05 -3.05548e-05 0.000166004)
(-2.85222e-05 -2.65615e-05 0.000158815)
(-3.45905e-05 -3.47064e-05 0.000158482)
(0.000191134 5.58135e-05 0.000176167)
(0.000240436 5.76903e-05 0.000200859)
(0.000196276 4.57886e-05 0.000176209)
(0.000169743 5.21142e-05 0.000184808)
(0.00020558 5.45576e-05 0.000200923)
(0.00025089 4.21771e-05 0.000213571)
(0.000252436 4.60395e-05 0.000246132)
(0.000299119 3.13146e-05 0.000263847)
(0.000283926 4.2e-05 0.000240853)
(0.000250342 4.82203e-05 0.000254283)
(0.000248391 5.74303e-05 0.000210314)
(0.000268594 4.48684e-05 0.000222207)
(0.000272707 2.5901e-05 0.000304651)
(0.000253982 3.19293e-05 0.000313095)
(0.000300889 1.44769e-05 0.000351256)
(0.000246109 2.7331e-05 0.000326708)
(0.000269322 1.16945e-05 0.000331352)
(0.00022723 2.83546e-05 0.000312327)
(0.0003217 4.58481e-05 0.000375739)
(0.000333203 2.16836e-05 0.000335365)
(0.000301547 3.01756e-05 0.000312545)
(0.000263996 2.86801e-05 0.000297243)
(0.00031632 1.00093e-05 0.000397279)
(0.000308394 1.77636e-05 0.000347646)
(0.000335332 3.66086e-05 0.000426682)
(0.000309399 4.93494e-05 0.000319065)
(0.000347513 1.70208e-05 0.000362071)
(0.000329814 1.5005e-05 0.000304328)
(0.000353972 2.2549e-05 0.000355349)
(0.000341216 3.00092e-05 0.000340251)
(0.000334646 3.2665e-05 0.000403363)
(0.000361901 1.97778e-06 0.000432465)
(0.0003723 -1.12734e-05 0.000413922)
(0.000383122 2.34371e-05 0.000472451)
(0.000420162 1.99862e-05 0.000468713)
(0.000410324 -6.88729e-06 0.00040605)
(0.000387345 -6.31594e-06 0.000326745)
(0.000400416 1.53028e-05 0.000398546)
(0.000330969 2.69122e-05 0.000288189)
(0.000309224 2.23794e-05 0.000241401)
(0.000345707 3.15703e-05 0.000286184)
(0.000140531 4.65611e-05 0.000154651)
(0.000175212 5.29664e-05 0.000173466)
(0.000116477 3.98409e-05 0.000128102)
(0.000174986 5.38763e-05 0.000146896)
(0.000216611 4.96429e-05 0.000179564)
(0.000275055 4.08211e-05 0.000206708)
(0.000227577 6.00121e-05 0.000183857)
(6.83702e-05 2.57374e-05 8.14986e-05)
(0.000179838 5.71403e-05 0.000102282)
(-4.74245e-06 -1.10863e-05 5.19698e-05)
(2.48151e-05 8.96274e-06 5.62259e-05)
(0.000133311 4.99489e-05 5.95348e-05)
(0.000177306 5.63131e-05 0.000125074)
(0.00016721 3.57949e-05 6.183e-05)
(0.000223391 5.78566e-05 0.000137073)
(0.00028384 4.56215e-05 0.000105434)
(0.000162828 5.28572e-05 6.63082e-05)
(0.000176975 4.82684e-05 8.18015e-05)
(0.000273084 6.04343e-05 9.89657e-05)
(0.000421083 1.17537e-05 0.000362894)
(0.000478299 -1.97954e-05 0.000463491)
(0.000428546 -7.12932e-06 0.000402048)
(0.000480893 -8.61882e-06 0.00045856)
(0.000326796 4.03159e-05 0.000256016)
(0.000397482 1.919e-06 0.000318678)
(0.000356895 2.18051e-05 0.000278884)
(0.000375579 1.90766e-05 0.000308857)
(0.000326674 4.28467e-05 0.000226564)
(0.000360554 3.1135e-05 0.000291378)
(0.000446643 -1.90863e-05 0.000288761)
(0.000516733 -6.26065e-06 0.000386738)
(0.000519644 -4.5506e-05 0.000426295)
(0.000484472 -1.9786e-05 0.000353321)
(0.00043348 6.86784e-06 0.000383328)
(0.000332918 3.96024e-05 0.000139411)
(0.000361369 3.08795e-05 0.000178557)
(0.000413296 8.74056e-07 0.000245627)
(0.000380808 2.41003e-05 0.000177079)
(0.000379637 2.17129e-05 0.000207965)
(0.000310176 5.27986e-05 0.000147175)
(0.000362039 3.118e-05 0.000175221)
(0.000489217 1.81693e-06 0.000308574)
(0.000506941 -3.26228e-05 0.000332081)
(0.000574974 -5.31513e-05 0.000322379)
(0.000492419 -1.14624e-05 0.000275134)
(0.000454261 4.39789e-06 0.0002492)
(0.000486622 -1.07055e-05 0.000249804)
(0.00030212 2.56524e-05 0.000501023)
(0.000312297 4.03004e-06 0.000498044)
(0.000353111 -4.41751e-05 0.000538278)
(0.000343171 -8.70077e-06 0.000519154)
(0.000289769 4.59797e-05 0.000466609)
(0.000323244 -1.20183e-05 0.000472482)
(0.000447634 -5.86304e-05 0.000649655)
(0.000314092 4.56057e-06 0.000495329)
(0.000337712 -1.05262e-05 0.00049791)
(0.000382296 3.10666e-06 0.000573308)
(0.000371711 -1.73419e-05 0.000507055)
(0.000337271 1.47464e-06 0.000462665)
(0.000365094 5.20729e-06 0.000512484)
(0.000468359 -3.85386e-05 0.000648047)
(0.000491545 -1.438e-05 0.000793827)
(0.000367602 1.0156e-05 0.000564281)
(0.00041399 1.76592e-05 0.000654009)
(0.000412321 1.87905e-05 0.00067535)
(0.000433179 -3.51206e-05 0.000639803)
(0.000570375 -0.000102339 0.000792056)
(0.000520946 -0.000127344 0.000683766)
(0.000421689 4.59236e-05 0.000674761)
(0.00043247 -1.53132e-05 0.00063372)
(0.000380803 4.63181e-06 0.000532741)
(0.000420567 3.48831e-06 0.000594798)
(0.000408584 -1.62866e-05 0.000528384)
(0.00035345 7.84762e-06 0.000462378)
(0.000394297 5.16298e-06 0.000520693)
(-3.61433e-05 -3.02687e-05 0.00016042)
(0.000485825 -6.76749e-05 0.00061287)
(0.000431774 -1.1277e-05 0.000531129)
(0.000478895 9.66872e-06 0.00061872)
(0.000409509 -1.33192e-05 0.000590527)
(0.000464664 -3.68038e-05 0.000601842)
(0.000528226 -3.94064e-05 0.000690779)
(0.000453823 -3.56005e-05 0.000532393)
(0.000416683 -1.55208e-05 0.000452384)
(0.000421287 1.90027e-05 0.000536538)
(0.000637692 -7.22924e-05 0.000958513)
(0.00044302 -2.86074e-06 0.000669816)
(-3.62892e-05 -2.6083e-05 0.000148321)
(0.000463454 -2.26108e-05 0.000657713)
(0.000528711 -1.22725e-05 0.000771039)
(0.000616736 -7.90476e-05 0.000869037)
(0.000604262 -9.89698e-05 0.000786351)
(0.000429344 -1.25227e-05 0.000580296)
(-4.13972e-05 -2.15423e-05 0.00016007)
(0.00050925 -0.000112176 0.000550169)
(0.000543016 -2.16137e-05 0.000702918)
(0.00058876 -5.54724e-05 0.000831424)
(0.000503182 -3.37695e-05 0.00069115)
(0.000565491 -1.18312e-05 0.0007862)
(0.000619779 -5.09113e-05 0.000804208)
(0.000526257 1.37089e-05 0.000696402)
(0.000678887 -0.000116491 0.000835857)
(0.000565837 -6.9368e-05 0.000687502)
(0.000614018 -3.41271e-05 0.00080669)
(0.0004899 -6.18463e-06 0.000756394)
(0.000491128 -5.98872e-05 0.000703465)
(0.000598436 -7.73737e-05 0.000854213)
(0.000650632 -6.70053e-05 0.000965945)
(0.000620878 -0.000130868 0.000871585)
(0.000564418 4.81703e-05 0.000862493)
(0.000658757 -0.000110051 0.000982072)
(0.000619936 6.59262e-05 0.000968734)
(0.000576685 -1.38036e-05 0.000875043)
(0.000558276 -3.57664e-05 0.00080858)
(0.000667217 -8.82166e-05 0.000941205)
(0.000540189 -4.44653e-05 0.000788123)
(0.000575286 -6.52734e-05 0.00077211)
(0.00066281 -8.35725e-05 0.000884678)
(0.000764487 -0.000122969 0.000984789)
(0.000567028 -6.68e-05 0.00077322)
(0.000630477 -0.000101297 0.000748431)
(0.000688315 -1.48157e-05 0.00091867)
(0.000477429 -1.32918e-05 0.000518899)
(0.000439407 -6.22859e-05 0.000487049)
(0.000502874 -6.45531e-05 0.000511095)
(0.000505607 6.94593e-07 0.000618672)
(0.000583609 -3.75183e-05 0.000693271)
(0.000528596 -5.66662e-06 0.000588337)
(0.000523682 -5.46074e-05 0.000518723)
(0.00051951 -3.95459e-05 0.000439762)
(0.000525584 -1.59072e-05 0.000508612)
(0.000615583 -6.76142e-05 0.000610759)
(0.00057429 -7.51517e-05 0.000509747)
(0.000609402 -5.33854e-05 0.00059732)
(0.000643789 -9.39225e-05 0.000709776)
(-4.4108e-05 -1.74093e-05 0.000158357)
(0.000557608 -6.11655e-05 0.000611609)
(0.00060429 -4.78626e-05 0.000701011)
(0.000730762 -0.000151881 0.000835361)
(0.00063842 -9.28462e-05 0.000681564)
(0.00067063 -4.67436e-05 0.000809586)
(-4.73992e-05 -1.27452e-05 0.000159696)
(0.000691064 -0.000126928 0.0006926)
(0.000667317 -0.0001447 0.000535839)
(-3.59098e-05 -3.46322e-05 0.000182401)
(0.000657139 -4.50641e-05 0.000716709)
(0.000571444 -5.18819e-05 0.00048613)
(-3.99424e-05 -2.73878e-05 0.000185683)
(0.000564692 -5.67606e-05 0.000422103)
(0.000571994 -3.03233e-05 0.00048484)
(-3.42027e-05 -3.44541e-05 0.000167837)
(0.000661713 -4.71579e-05 0.000447926)
(-3.7339e-05 -1.70596e-05 0.000169202)
(-4.06244e-05 -2.89458e-05 0.000182614)
(0.000625403 -0.000112907 0.000483659)
(0.000644691 -0.000113137 0.000431441)
(-4.17721e-05 -2.75699e-05 0.000182241)
(0.000639272 -3.60189e-05 0.000602917)
(0.000423589 -0.000309401 0.000138642)
(-4.52965e-05 -2.01821e-05 0.000177607)
(0.000475993 -0.000357248 6.84293e-05)
(0.000371928 -0.000281078 9.24699e-05)
(-4.43205e-05 -2.08053e-05 0.000181722)
(0.000298373 -0.000243622 0.000126371)
(0.000353677 -0.000286828 0.000107909)
(-4.82038e-05 -1.34581e-05 0.000190447)
(0.000263307 -0.000220834 9.88329e-05)
(0.00031326 -0.000225387 0.00017307)
(-3.70676e-05 -1.99415e-05 0.000163827)
(-3.36038e-05 -1.77559e-05 0.000151102)
(0.000344337 -0.000258576 0.000100714)
(-3.92085e-05 -2.40695e-05 0.000153611)
(-4.106e-05 -1.85819e-05 0.000167826)
(0.000201154 -0.000173759 0.00011547)
(-3.9523e-05 -1.61895e-05 0.000152512)
(-4.34256e-05 -1.36076e-05 0.000166258)
(0.000250468 -0.000216676 0.000114743)
(-4.2036e-05 -1.29782e-05 0.000150718)
(0.000187343 -0.00016208 0.000102275)
(0.000116815 -0.000106568 8.46399e-05)
(0.000175354 -0.000152019 0.000116553)
(0.000139989 -0.000113782 0.000110469)
(0.000121758 -0.000102921 0.000100622)
(0.000155502 -0.000117865 0.000115388)
(0.000137372 -0.000110831 0.000110079)
(0.000210837 -0.000153049 0.000157138)
(0.00023315 -0.000176826 0.000122983)
(0.000260144 -0.000233212 8.10799e-05)
(0.000353213 -0.000277842 8.64882e-05)
(0.000267389 -0.000195711 0.000126971)
(0.000152435 -0.000128852 8.97111e-05)
(0.000246903 -0.000207731 0.000105196)
(0.000206787 -0.000156217 0.000136417)
(0.000185862 -0.000149726 0.00014584)
(0.000219317 -0.000150488 0.000177074)