/*--------------------------------*- C++ -*----------------------------------*\
  =========                 |
  \\      /  F ield         | OpenFOAM: The Open Source CFD Toolbox
   \\    /   O peration     | Website:  https://openfoam.org
    \\  /    A nd           | Version:  7
     \\/     M anipulation  |
\*---------------------------------------------------------------------------*/
FoamFile
{
    version     2.0;
    format      ascii;
    class       volVectorField;
    location    "2.425";
    object      wallShearStress;
}
// * * * * * * * * * * * * * * * * * * * * * * * * * * * * * * * * * * * * * //

dimensions      [0 2 -2 0 0 0 0];

internalField   uniform (0 0 0);

boundaryField
{
    wall
    {
        type            calculated;
        value           nonuniform List<vector> 
48888
(
(8.71746e-05 -9.10843e-05 -0.000152937)
(0.000129975 -4.85958e-05 -0.000165081)
(0.000124342 -8.55398e-05 -0.000170862)
(8.36014e-05 -0.000112449 -0.000148025)
(8.2542e-05 -6.03599e-05 -0.000221948)
(9.86951e-05 -8.97202e-05 -0.000195199)
(7.97875e-05 -0.000118388 -0.000207508)
(7.79519e-05 -4.43888e-05 -0.000172877)
(0.000121291 -8.7418e-05 -0.000144807)
(9.45925e-05 -0.000100256 -0.000154151)
(0.000112554 -6.91525e-05 -0.000183506)
(0.000100713 -6.07034e-05 -0.000148985)
(9.2711e-05 -5.58393e-05 -0.000171895)
(0.000130102 -0.000136585 -0.000163179)
(0.000105395 -2.16255e-05 -0.000208581)
(9.87181e-05 -4.33272e-05 -0.000206163)
(0.0001045 -6.38804e-05 -0.000150833)
(9.42677e-05 -0.000103565 -0.000160837)
(0.000125392 -8.2239e-05 -0.000206871)
(9.0648e-05 -5.1736e-05 -0.000155435)
(8.81926e-05 -1.17669e-05 -0.000190613)
(8.38953e-05 -2.15794e-05 -0.000202355)
(9.7348e-05 -3.42524e-05 -0.00019175)
(9.65544e-05 -0.000103265 -0.000133076)
(8.1247e-05 -7.37432e-05 -8.4149e-05)
(7.63618e-05 -9.93436e-05 -0.000118625)
(0.000114128 -7.26779e-05 -0.000175444)
(8.64827e-05 -5.31833e-05 -0.000126237)
(0.000187256 -3.47166e-05 -0.000455552)
(0.000226757 -9.90432e-05 -0.00036421)
(0.000198698 -0.000114447 -0.000427171)
(0.00014364 -1.85529e-05 -0.000435316)
(0.00014845 -2.42397e-05 -0.00020067)
(0.000122577 -5.98039e-05 -0.000158288)
(0.000111383 -8.66185e-05 -0.000141187)
(0.000103417 -3.11553e-05 -0.000150042)
(0.000127484 -6.27444e-05 -0.000216274)
(0.00012102 -0.000112665 -0.000181156)
(0.00012322 -0.000144167 -0.000130564)
(0.000112561 -5.96798e-05 -0.00020521)
(9.5642e-05 -8.74085e-05 -0.000217581)
(0.000104426 1.14244e-05 -0.000190837)
(8.99709e-05 -7.67563e-05 -9.66166e-05)
(8.44436e-05 -7.6039e-05 -0.000133169)
(0.000117765 -6.34489e-05 -0.000153733)
(0.000115112 -0.000109443 -0.00011889)
(0.000111531 -0.000107071 -0.000184192)
(7.99783e-05 -5.14848e-05 -0.000143236)
(0.000113182 -6.9182e-05 -0.00020911)
(0.000104413 -5.09632e-05 -0.000221375)
(0.000111502 -4.05929e-05 -0.000214794)
(0.000114557 -9.55668e-05 -0.000160511)
(9.8502e-05 -7.97005e-05 -0.000146372)
(0.000118882 -6.57076e-05 -0.000157498)
(0.000130527 -4.17585e-05 -0.000148747)
(7.44252e-05 -8.72713e-05 -0.000133969)
(8.32704e-05 -5.02453e-05 -0.000136323)
(9.011e-05 -5.42634e-05 -0.000121083)
(9.62164e-05 -4.7653e-05 -0.000115168)
(7.6952e-05 -3.33221e-05 -0.000146372)
(0.000117863 -8.30362e-05 -0.000217813)
(0.000172833 -0.000126754 -0.000285647)
(0.000114704 -7.47616e-05 -0.000219677)
(0.000187983 -0.000101237 -0.000247695)
(8.97819e-05 -3.89506e-05 -0.000125372)
(8.97039e-05 -9.49856e-05 -0.000141427)
(0.000101323 -6.40623e-05 -0.000132511)
(0.000124175 -3.01327e-05 -0.000144554)
(0.00010537 -0.000104396 -0.000139532)
(0.000107818 -7.69887e-05 -0.000168529)
(9.23091e-05 -5.54064e-05 -0.000149264)
(9.17506e-05 -7.60447e-05 -0.000132307)
(0.000102471 -7.48821e-05 -0.000135488)
(0.00012434 -0.000138844 -8.05211e-05)
(0.000113224 -0.000128785 -0.000189378)
(7.84132e-05 -4.07998e-05 -0.000143596)
(7.96805e-05 -6.80109e-05 -0.000119342)
(8.79809e-05 -4.81593e-05 -0.000158668)
(8.5367e-05 -6.91548e-05 -0.000149385)
(7.51816e-05 -8.03521e-05 -0.00011892)
(0.000127667 -6.04647e-05 -0.000196347)
(7.35351e-05 -6.2804e-05 -0.000267694)
(7.70085e-05 -4.20428e-05 -0.000228326)
(0.000137146 -0.000114318 -0.000194665)
(0.000136294 -8.66651e-05 -0.000255403)
(0.000143591 -0.000118232 -0.00018505)
(0.000115872 -7.53085e-05 -0.000221518)
(0.000102286 -5.13271e-05 -0.000218409)
(0.000147625 -0.000137427 -0.000177743)
(0.000125056 -0.00013496 -0.000180002)
(0.000172554 -8.0931e-05 -0.000246149)
(0.000150484 -5.43774e-05 -0.000199378)
(0.000116444 -9.12243e-05 -0.000160652)
(0.000128793 -8.40951e-05 -0.000179433)
(0.00010489 -6.36172e-05 -0.000190475)
(0.000102021 -4.20767e-05 -0.000218752)
(7.85724e-05 -5.54342e-05 -0.000141478)
(9.37103e-05 -0.000118442 -0.000135475)
(8.04227e-05 -4.47787e-05 -0.000127369)
(7.53994e-05 -3.17475e-05 -0.000158422)
(0.000106294 -7.94454e-05 -0.000211024)
(0.000115578 -5.10136e-05 -0.000242617)
(0.000152667 -7.35249e-05 -0.000188)
(0.000105895 -9.67878e-05 -0.000163963)
(8.26466e-05 -0.000160302 -0.00015623)
(0.000135172 -2.17924e-05 -0.000252961)
(0.000151234 -0.000111599 -0.000179461)
(0.000148174 -0.000114784 -0.000181874)
(0.000124481 -5.70892e-05 -0.000171593)
(9.92188e-05 -3.82499e-05 -0.000170647)
(0.000107776 -9.34449e-05 -0.000166511)
(9.78071e-05 -9.40613e-05 -0.000140226)
(0.000101365 -6.62354e-05 -0.000182477)
(9.61344e-05 -7.11036e-05 -0.000244715)
(0.000138803 -0.000108251 -0.000229421)
(7.08883e-05 -8.49958e-05 -0.000165466)
(0.000105268 -7.10767e-05 -0.000161505)
(0.000129813 -6.25845e-05 -0.000207878)
(0.000129285 -0.000102841 -0.000160828)
(0.00011582 -6.84363e-05 -0.000143506)
(0.000169507 -0.000104118 -0.00025825)
(0.000114963 -0.000104278 -0.000191427)
(0.000121096 -0.000112424 -0.000202738)
(0.000201389 -3.99393e-06 -0.000221431)
(0.000139892 -0.000119258 -0.000231436)
(0.000116495 -0.000115814 -0.000191584)
(0.000135471 -0.000137989 -0.000232045)
(0.000101143 -1.08118e-05 -0.000293765)
(0.00018374 -8.68457e-05 -0.000284062)
(0.000139112 -0.000153952 -0.00025536)
(0.000186502 -5.40182e-05 -0.000273403)
(0.000196655 -2.84186e-05 -0.000271698)
(0.000131936 -0.00011287 -0.000213433)
(0.000145607 -8.75987e-05 -0.000244684)
(0.000136025 -5.90261e-05 -0.000239054)
(0.000124304 -0.000119263 -0.000228067)
(0.000131785 -1.46333e-05 -0.000267654)
(0.000161466 -8.18409e-05 -0.000243994)
(0.00016768 -1.65952e-05 -0.000297586)
(0.000144806 -2.23173e-05 -0.000259648)
(0.000115958 -5.88788e-05 -0.000170106)
(0.000164496 -3.7511e-05 -0.000197994)
(0.000109774 -8.47088e-05 -0.000134375)
(9.93672e-05 -9.75753e-05 -0.000159503)
(0.000102327 -5.62393e-05 -0.000162018)
(8.58494e-05 -0.000140067 -0.000173471)
(0.000107105 -0.000108258 -0.000155525)
(0.000118857 -3.47022e-05 -0.000175292)
(0.000106584 -8.18433e-05 -0.000157064)
(0.000177909 -9.10029e-05 -0.000263714)
(7.16921e-05 -0.000107442 -0.000130609)
(0.000131373 -5.6548e-05 -0.000264135)
(0.00010337 -9.56076e-05 -0.000167851)
(9.55996e-05 -0.00010567 -0.000157482)
(0.000111743 -0.000110851 -0.000167123)
(0.000106787 -9.8969e-06 -0.000215944)
(0.00015533 -2.9693e-05 -0.000176049)
(0.000183953 -1.50076e-05 -0.000171999)
(0.000160403 2.96296e-06 -0.000172086)
(9.14661e-05 -0.000143143 -0.000188265)
(0.000126052 -3.6059e-05 -0.000237619)
(0.000182022 -8.41011e-05 -0.000306317)
(0.000170144 -9.79185e-05 -0.000240392)
(0.000131444 -0.000104783 -0.000223982)
(9.44615e-05 -5.47952e-05 -0.000179312)
(9.05933e-05 -0.000106106 -0.000134251)
(6.14045e-05 -9.20056e-05 -0.000131933)
(8.34533e-05 -5.36959e-05 -0.000142936)
(8.71491e-05 -3.56218e-05 -0.000152767)
(0.000135776 -3.35591e-05 -0.000163439)
(0.000118218 -6.99567e-05 -0.000112777)
(8.86643e-05 -7.15425e-05 -0.000143403)
(0.000100891 -8.77425e-05 -0.000193843)
(0.000118972 -2.57924e-05 -0.00019707)
(0.000100671 -8.29114e-05 -0.000132873)
(9.29778e-05 -0.000104904 -0.000140407)
(0.000101177 -5.73708e-05 -0.000106933)
(9.13302e-05 -7.44091e-05 -0.000134264)
(9.10326e-05 -6.09946e-05 -0.00013379)
(8.52864e-05 -0.000111456 -0.000139417)
(0.00012563 -9.79707e-06 -0.000146947)
(0.000159363 -3.71268e-06 -0.000175457)
(0.000109891 7.25728e-06 -0.000152018)
(9.75021e-05 -0.000116127 -0.000156584)
(0.000141852 -6.69404e-05 -0.000239759)
(0.000141661 -4.82821e-05 -0.000260584)
(0.000128803 -3.75112e-05 -0.000225209)
(0.000137635 -0.000113494 -0.000207448)
(0.000245019 -1.93576e-05 -0.000373832)
(0.000265919 -2.77907e-05 -0.000442905)
(0.000239672 -4.95152e-05 -0.000385862)
(0.000189367 -0.000169635 -0.000369968)
(0.000244198 -0.000129473 -0.00039319)
(0.000291479 -2.89436e-05 -0.000364299)
(0.000257491 -8.83478e-05 -0.000361975)
(0.000227972 -0.000147499 -0.000321869)
(7.05534e-05 -9.89605e-05 -0.000148679)
(0.000129046 -6.23491e-05 -0.000167117)
(7.09448e-05 -7.48055e-05 -0.000124275)
(9.01663e-05 -5.79041e-05 -0.000108945)
(7.70531e-05 -5.39301e-05 -0.000154118)
(8.6189e-05 -0.000107531 -0.000182956)
(0.000119852 -7.77701e-05 -0.000169014)
(0.000131989 -3.67098e-05 -0.000170187)
(9.75184e-05 -5.06739e-05 -0.000207139)
(0.000124591 -0.000115835 -0.000163723)
(0.000107831 -3.20705e-05 -0.000238256)
(8.16151e-05 -2.77147e-05 -0.000223416)
(7.96969e-05 -7.13869e-05 -0.00017003)
(0.000110081 -2.14113e-05 -0.000254246)
(0.000126043 -6.6927e-05 -0.000189249)
(0.000118633 -0.000106228 -0.000169817)
(0.000103475 -8.69724e-05 -0.000184113)
(0.000115689 -6.83317e-05 -0.000152533)
(8.29811e-05 -5.81058e-05 -0.000143364)
(8.73941e-05 -6.06707e-05 -0.000113908)
(0.000132127 -5.13657e-05 -0.000150475)
(0.000123843 -1.01314e-05 -0.000170586)
(0.000106711 -4.56854e-05 -0.000168886)
(8.7005e-05 -6.1506e-05 -0.000147319)
(0.000226079 -0.000167373 -0.000272651)
(0.000202398 -0.000158058 -0.000294186)
(0.000199985 -6.11287e-05 -0.000332817)
(0.00019033 -8.96965e-05 -0.000284338)
(0.000148986 -2.72858e-05 -0.000137067)
(7.59253e-05 -0.000151482 -0.000145361)
(0.000205635 -4.59677e-05 -0.000161385)
(0.000145901 -5.0488e-05 -0.000144232)
(0.000241793 -3.59574e-05 -0.000403351)
(0.000213173 -0.000130941 -0.00035484)
(0.000176591 -0.000181161 -0.00032676)
(0.000166656 -0.000116592 -0.000322367)
(0.000207031 -0.000122797 -0.000273898)
(0.000155912 -0.0001859 -0.000226767)
(0.000184272 -0.000177281 -0.000296526)
(0.000231856 -7.90633e-06 -0.000348769)
(0.000169507 -7.19208e-05 -0.000320002)
(0.000265677 -2.32544e-05 -0.000453021)
(0.000220395 -9.6042e-05 -0.000342352)
(0.000195401 -0.000189572 -0.000321628)
(0.000104038 -5.70575e-05 -0.000155456)
(0.000139265 -2.89948e-05 -0.000170895)
(9.43394e-05 -4.20707e-05 -0.000184193)
(0.000107849 -7.39592e-05 -0.000129979)
(0.000181511 -2.33952e-05 -0.000409193)
(0.000209201 -9.17534e-05 -0.000346277)
(0.000176323 -0.000122412 -0.000304093)
(0.000140899 -5.43442e-05 -0.000311804)
(8.47794e-05 -6.48965e-05 -0.000146026)
(0.000131792 -8.19446e-05 -0.000201254)
(9.78692e-05 -0.000108783 -0.000152318)
(8.1504e-05 -7.12799e-05 -0.000143823)
(7.45757e-05 -0.000109434 -0.000136191)
(0.000100013 -7.60113e-05 -0.000164378)
(0.00011805 -0.000120896 -0.000122268)
(8.0444e-05 -8.73879e-05 -0.000116646)
(0.000177906 -0.000135575 -0.000259406)
(0.000120404 -0.000147657 -0.000238688)
(0.000159003 -8.04583e-05 -0.000263313)
(0.000168544 -5.4515e-05 -0.000246942)
(0.000119774 -7.61105e-05 -0.000178944)
(0.000131946 -5.55788e-05 -0.000231458)
(0.000158877 -2.01955e-05 -0.000232318)
(0.000125779 -4.56239e-05 -0.000187686)
(0.000103375 -6.894e-05 -0.000170337)
(0.000118139 -9.97494e-05 -0.000170378)
(0.000122847 -3.96259e-05 -0.000162517)
(0.000133988 -3.5017e-05 -0.000178718)
(0.000179005 -8.17538e-05 -0.00026615)
(0.000210133 -9.45082e-05 -0.000400709)
(0.000231602 -0.000175825 -0.000352283)
(0.000180527 -9.9413e-05 -0.000296363)
(0.000224212 -4.66689e-05 -0.00028407)
(0.000302865 -2.7971e-05 -0.000334486)
(0.000206103 -0.000106076 -0.000317638)
(0.000195026 -9.73264e-05 -0.000321419)
(8.65415e-05 -5.75577e-05 -0.000202187)
(0.000105258 -9.40165e-05 -0.000135728)
(9.12004e-05 -4.71471e-05 -0.000209722)
(7.46974e-05 -3.51238e-05 -0.000201039)
(0.00029564 -0.000148634 -0.000486581)
(0.000318526 7.70157e-05 -0.000477755)
(0.000261377 -0.000113318 -0.000381939)
(0.0002607 -0.000134164 -0.000379293)
(9.70049e-05 -5.29625e-05 -0.00016387)
(0.000100698 -9.86319e-05 -0.000120018)
(8.39961e-05 -8.1407e-05 -0.000157103)
(8.73564e-05 -4.28773e-05 -0.000132584)
(0.000160011 -0.000144273 -0.000260707)
(0.000198509 -5.95485e-05 -0.000318819)
(0.000130484 -5.03192e-05 -0.000275926)
(0.00016809 -9.23399e-05 -0.000242378)
(0.000116906 -7.9788e-05 -0.000149658)
(7.78653e-05 -0.00011603 -0.000107029)
(6.39029e-05 -9.95818e-05 -0.000140395)
(8.2312e-05 -4.88044e-05 -0.000157965)
(9.15401e-05 -7.05736e-05 -0.000186609)
(9.69782e-05 -3.12999e-05 -0.000206082)
(7.65072e-05 -4.34536e-05 -0.00020285)
(0.000104759 -6.37519e-05 -0.000161639)
(0.00012233 -9.09049e-05 -0.000162584)
(0.000133565 -0.000125186 -0.000108616)
(0.000110297 -9.23189e-05 -0.000155742)
(8.65247e-05 -5.71832e-05 -0.000168429)
(0.00011199 -0.000109994 -0.000174834)
(0.000117591 -8.66126e-05 -0.000149876)
(0.000110528 -8.93322e-05 -0.000164)
(0.000135223 -1.24606e-05 -0.000172038)
(8.64621e-05 -5.48254e-05 -0.000316301)
(0.000158638 -4.14163e-05 -0.000291272)
(0.000121567 -9.50846e-05 -0.000266915)
(0.000124373 -8.40085e-05 -0.000254031)
(7.19028e-05 -6.62199e-05 -0.000162038)
(0.000132517 -8.04366e-05 -0.000180886)
(9.47335e-05 -7.50633e-05 -0.000127826)
(0.000104604 -5.79426e-05 -0.000183524)
(8.4614e-05 -6.89151e-05 -0.000122621)
(4.08688e-05 -0.000132332 -0.000140729)
(8.05947e-05 -9.40454e-05 -0.000129975)
(0.000120113 -4.65229e-05 -0.000128392)
(9.16574e-05 -6.34612e-05 -0.000147372)
(9.71773e-05 -7.30801e-05 -0.000154926)
(0.000123738 -2.93176e-05 -0.000214689)
(8.52266e-05 -3.38076e-05 -0.000145242)
(0.000205635 -0.000127556 -0.000244218)
(8.86934e-05 -0.000250663 -0.00025306)
(0.000219662 -0.0001695 -0.000267346)
(0.000174173 -0.000100585 -0.000218675)
(0.000120209 -9.78338e-05 -0.000170215)
(0.000176206 -7.86979e-05 -0.000254402)
(0.000128591 -3.06302e-05 -0.00019366)
(0.000134769 -0.000115198 -0.000193818)
(0.000138671 -4.91653e-05 -0.000256306)
(0.000127302 -4.5633e-05 -0.000279304)
(0.000140064 -9.83674e-05 -0.000268528)
(0.00013528 -0.000126723 -0.000216187)
(0.000104321 -9.31867e-05 -0.000140379)
(9.55394e-05 -0.000105741 -0.000169455)
(0.000139906 -0.000123782 -0.000194363)
(9.51518e-05 -8.42522e-05 -0.00013574)
(0.000146517 -8.64379e-05 -0.000252871)
(0.000143656 -8.46097e-05 -0.000287023)
(0.000198115 -1.90741e-05 -0.000375927)
(0.000132887 -6.36186e-05 -0.000245313)
(6.64968e-05 -7.36204e-05 -0.000139422)
(7.21418e-05 -4.93928e-05 -0.000206069)
(0.000102682 -4.82706e-05 -0.000152636)
(9.22819e-05 -7.25701e-05 -0.000138241)
(0.000241402 -0.000141088 -0.000334782)
(0.000228044 -0.000144334 -0.000373869)
(0.000246978 -6.18904e-05 -0.000396124)
(0.000319876 2.66137e-05 -0.000395955)
(7.33121e-05 -7.43521e-05 -0.000147622)
(7.48139e-05 -7.86377e-05 -0.000199325)
(0.000112627 -4.4613e-05 -0.000239306)
(7.77427e-05 -6.38815e-05 -0.000166577)
(8.78167e-05 -6.29071e-05 -0.000123353)
(0.000102781 -6.37184e-05 -0.000174936)
(0.00013117 -9.40419e-05 -0.000171778)
(7.56585e-05 -6.42755e-05 -0.000123757)
(7.1493e-05 -6.46208e-05 -0.000126001)
(9.71496e-05 -0.000157465 -0.000161495)
(4.17765e-05 -0.000110762 -9.25732e-05)
(0.000102715 -5.22575e-05 -0.00014075)
(0.000106974 -0.00011602 -0.000198992)
(0.000115623 -9.5846e-05 -0.000178154)
(0.000132323 -0.000101837 -0.000212726)
(0.00015461 -8.17144e-06 -0.000207027)
(0.000111389 -0.000131341 -0.000173467)
(0.000110742 -0.000104891 -0.000165045)
(9.24221e-05 -0.000106614 -0.000162607)
(9.85277e-05 -8.95987e-05 -0.000137172)
(7.05687e-05 -6.7246e-05 -0.000133766)
(0.000103288 -4.48318e-05 -0.000135488)
(0.000109918 -7.1524e-05 -0.000153546)
(6.01197e-05 -9.80124e-05 -0.000114393)
(0.00014011 -6.40578e-05 -0.000211409)
(0.000153387 -9.5203e-06 -0.000249361)
(0.000122901 -8.76608e-05 -0.000209001)
(0.000112538 -8.94163e-05 -0.000202633)
(0.000103673 -5.4525e-05 -0.000169102)
(0.000102504 -5.15635e-06 -0.000184889)
(9.90808e-05 -6.71622e-05 -0.000153253)
(9.59549e-05 -9.65108e-05 -0.000119932)
(0.000247591 -0.000136721 -0.000331093)
(0.000232502 -0.000150487 -0.000295971)
(0.000250279 -0.000193655 -0.000308375)
(0.000268536 -2.35925e-05 -0.00037006)
(9.19737e-05 -0.000106517 -0.0001601)
(0.00011868 -1.96624e-05 -0.000157573)
(0.000101102 -0.000117566 -0.000134313)
(7.44936e-05 -0.000116341 -0.000123569)
(8.8729e-05 -5.81598e-05 -0.0001272)
(0.000102654 -3.39245e-05 -0.000140969)
(9.36855e-05 -7.32337e-05 -0.000118314)
(6.89172e-05 -6.48097e-05 -0.000119493)
(9.88981e-05 -6.99829e-05 -0.000160078)
(0.000105663 -6.77954e-05 -0.000149663)
(0.000101485 -4.45734e-05 -0.000129389)
(8.22489e-05 -6.3349e-05 -0.000102302)
(0.000157321 -9.03492e-05 -0.000211421)
(0.000137674 -9.129e-05 -0.000241927)
(0.000120291 -6.3101e-05 -0.000209549)
(0.000112907 -0.000145568 -0.000228808)
(9.22692e-05 -5.42199e-05 -0.000180762)
(0.000126879 -1.10738e-05 -0.000154712)
(8.90799e-05 -5.4685e-05 -0.000110609)
(7.09917e-05 -7.81712e-05 -0.000135516)
(8.8345e-05 -6.85471e-05 -0.000146413)
(0.000109604 -6.30027e-05 -0.000176245)
(0.0001691 -4.08598e-05 -0.000219517)
(8.82744e-05 -5.43527e-05 -0.000143807)
(5.56237e-05 -7.98244e-05 -0.000120045)
(8.79602e-05 -2.64397e-05 -0.000189586)
(9.77214e-05 -7.56132e-05 -0.000122055)
(8.43805e-05 -7.26234e-05 -0.000129839)
(8.48297e-05 -6.73095e-05 -0.000161841)
(0.000125417 -8.81303e-05 -0.000143433)
(8.07372e-05 -3.96918e-05 -0.000132137)
(8.52277e-05 -5.17005e-05 -0.00018828)
(0.000186959 -2.31627e-05 -0.000212651)
(0.000166793 -6.75278e-05 -0.000188807)
(0.000125869 -9.73592e-05 -0.000235799)
(0.00010931 -7.49562e-05 -0.000164371)
(8.44096e-05 -0.000101376 -0.000161827)
(0.000104857 -6.37719e-05 -0.00013305)
(7.49719e-05 -6.61899e-05 -0.000128894)
(7.37439e-05 -6.63925e-05 -0.000118384)
(0.000101059 -3.62512e-05 -0.000161758)
(0.000117923 -3.3811e-05 -0.000212804)
(7.89202e-05 -4.79677e-05 -0.000165304)
(7.65262e-05 -8.14601e-05 -0.00015256)
(9.95777e-05 -9.23398e-05 -0.000105275)
(6.06737e-05 -0.000122183 -0.000141205)
(7.72446e-05 -0.000126549 -0.000170773)
(0.000103372 -3.48376e-05 -0.000174808)
(7.46995e-05 -6.9849e-05 -0.000139809)
(9.88402e-05 -6.23522e-05 -0.000140121)
(8.42775e-05 -6.08714e-05 -0.000116211)
(0.00012269 -3.87319e-05 -0.000152532)
(5.76079e-05 -8.60717e-05 -0.000123436)
(7.4292e-05 -7.83812e-05 -0.000153528)
(8.57304e-05 -6.29323e-05 -0.000155541)
(9.23988e-05 -4.54133e-05 -0.000153462)
(0.000155217 -0.000138014 -0.000225031)
(0.000151494 -8.91545e-05 -0.000222815)
(0.000151935 -8.05382e-05 -0.000261702)
(0.000147091 -1.33509e-06 -0.000283335)
(8.50488e-05 -5.47478e-05 -0.000193674)
(9.19135e-05 -4.87958e-05 -0.000188008)
(0.000124431 -3.84834e-05 -0.000202845)
(7.37237e-05 -0.000115382 -0.000153226)
(9.55327e-05 -8.60087e-05 -0.000192964)
(0.000128121 -0.000110446 -0.00016458)
(8.34828e-05 -4.75427e-05 -0.000175976)
(8.57325e-05 -5.42264e-05 -0.000194642)
(0.000164363 -2.52493e-05 -0.000248751)
(0.000172908 -6.12469e-06 -0.000274894)
(0.000141462 -2.51144e-05 -0.000213073)
(0.000152344 -0.000135728 -0.000243059)
(9.0667e-05 -3.95789e-05 -0.000156853)
(0.000127736 -0.000103287 -0.000146415)
(8.1187e-05 -2.53817e-05 -0.000163693)
(8.07854e-05 -3.93365e-05 -0.000178215)
(0.000194744 -9.30716e-05 -0.000381554)
(0.000203521 -0.000168011 -0.000313574)
(0.000169352 -0.000102149 -0.000426853)
(0.000149546 -3.34548e-05 -0.00042554)
(0.000187797 -0.000134048 -0.000250252)
(0.00015348 -0.000157602 -0.000203069)
(0.000144976 -0.000140822 -0.000254796)
(0.000168007 -6.2414e-05 -0.000235915)
(9.49401e-05 -6.04604e-05 -0.000113041)
(8.74179e-05 -7.59922e-05 -0.000111429)
(0.000114872 -9.66528e-05 -0.000129035)
(9.7663e-05 -2.79214e-05 -0.000154757)
(0.000120341 -5.1578e-05 -0.000152637)
(8.87519e-05 -3.94853e-05 -0.0001492)
(9.6812e-05 -3.43773e-05 -0.000145123)
(8.30217e-05 -9.58753e-05 -0.000137351)
(0.000122694 -1.71784e-05 -0.000255817)
(0.000153571 -4.68146e-06 -0.000221442)
(0.000144472 -2.60061e-05 -0.00023169)
(0.000125557 -9.43622e-05 -0.000166959)
(0.00011707 -0.000120065 -0.000203053)
(0.000117803 -9.96956e-05 -0.00015733)
(0.00012201 -7.62874e-05 -0.000201802)
(0.000136061 -3.32629e-06 -0.000193969)
(9.46662e-05 -6.80001e-05 -0.000117584)
(0.000128756 -2.03016e-05 -0.000111397)
(9.14554e-05 -5.76374e-05 -0.000120784)
(9.58732e-05 -7.19868e-05 -0.000105051)
(0.000165111 -0.000144158 -0.000235259)
(0.000132826 -0.000158329 -0.000204595)
(0.000178488 -7.92302e-05 -0.00023994)
(0.000172962 -6.70746e-05 -0.000211074)
(0.000137032 -0.000108658 -0.00023814)
(0.000154999 -0.000143252 -0.000231387)
(0.000116298 -0.000124367 -0.00018506)
(0.00013788 -7.74218e-05 -0.000206139)
(0.00014119 -8.5253e-05 -0.000180812)
(0.000110885 -0.000133118 -0.000131175)
(0.000117879 -8.51067e-05 -0.000215152)
(0.000105447 -3.23762e-05 -0.000167078)
(7.59197e-05 -5.11785e-05 -0.000151424)
(8.34173e-05 -5.84149e-05 -0.00017142)
(9.8485e-05 -4.00218e-05 -0.00018056)
(7.96996e-05 -3.11441e-05 -0.000184603)
(0.000108989 -0.000110062 -0.000159941)
(0.000108065 -5.3954e-05 -0.000223798)
(0.000124195 -4.38516e-05 -0.0002153)
(9.98834e-05 -5.9664e-05 -0.000186509)
(0.000124499 -0.000127322 -0.000169546)
(0.000159592 -0.000153715 -0.000137947)
(6.77804e-05 -7.78524e-05 -0.000164298)
(0.000108338 -7.7744e-05 -0.000153575)
(0.000135277 -1.95778e-05 -0.000222964)
(8.95895e-05 -0.00014661 -0.000180249)
(0.000150631 -3.29821e-05 -0.000189076)
(0.000124491 -2.83849e-05 -0.00018671)
(0.000200626 -0.000167226 -0.000320891)
(0.000182116 -0.000182008 -0.000304584)
(0.000200087 -0.000220816 -0.000326699)
(0.000264054 -1.56339e-05 -0.000353139)
(9.78337e-05 -2.62383e-05 -0.000217995)
(9.64094e-05 -0.000112912 -0.000240688)
(9.05926e-05 -5.2929e-05 -0.000204805)
(0.00010027 -5.68963e-05 -0.000235082)
(7.92908e-05 -6.10401e-05 -0.000169729)
(0.000143222 -3.79759e-05 -0.000191699)
(9.74111e-05 -9.58473e-05 -9.96193e-05)
(8.74725e-05 -8.36583e-05 -0.000146398)
(0.000106609 -3.1167e-05 -0.000197849)
(0.000137553 -5.17104e-05 -0.000195727)
(0.000143077 -6.68663e-05 -0.0001849)
(0.000136167 -0.000107545 -0.00014818)
(0.000124134 -5.23815e-05 -0.00017419)
(0.000112879 -5.89001e-05 -0.000174786)
(7.00316e-05 -3.80207e-05 -0.000160101)
(9.93696e-05 -0.000130259 -0.000168123)
(7.29038e-05 -0.000124307 -0.000165641)
(0.00013362 -7.25561e-05 -0.000169452)
(0.000127897 -0.000134744 -0.000150031)
(9.89815e-05 -9.81603e-05 -0.000145567)
(0.000214919 -5.58999e-05 -0.000254805)
(0.000203694 -7.14548e-05 -0.000255197)
(0.000161736 -8.68298e-05 -0.000227682)
(0.000139463 -6.73483e-05 -0.000229486)
(0.000209001 -0.000188513 -0.000314252)
(0.000174607 -0.000144736 -0.000278651)
(0.000173943 -0.000153468 -0.000317226)
(0.000138443 -1.69018e-05 -0.000356445)
(5.95675e-05 -9.74663e-05 -0.000127921)
(0.000110736 -9.99384e-05 -0.000160811)
(8.44888e-05 -9.20826e-05 -0.000151983)
(8.30368e-05 -5.31434e-05 -0.000185935)
(8.42913e-05 -4.46269e-05 -0.000213906)
(8.21099e-05 -2.0589e-05 -0.00021464)
(7.33853e-05 -1.70067e-05 -0.000206603)
(0.000108501 -0.000103345 -0.000140374)
(0.000203819 -0.000128758 -0.000267803)
(0.000178352 -0.000127849 -0.000222606)
(0.00012404 -0.000129965 -0.000223682)
(0.000138344 -9.18076e-05 -0.000224008)
(0.000343241 -2.63679e-06 -0.00056999)
(0.000329826 -0.000111624 -0.000468394)
(0.000376161 -0.000133346 -0.000580502)
(0.000292934 -6.97906e-05 -0.000502126)
(0.000279275 -0.000150184 -0.000408237)
(0.00022586 -0.000140597 -0.000352131)
(0.000239262 -0.000112596 -0.000387752)
(0.000305366 4.86149e-05 -0.000456906)
(0.000256877 -0.000185062 -0.000376628)
(0.000253444 -0.000111351 -0.00042647)
(0.000178461 -9.69288e-05 -0.00031619)
(0.000212697 -0.00013497 -0.000321258)
(0.000141579 -0.000124472 -0.000217153)
(0.000143175 -8.8987e-05 -0.000194474)
(9.84893e-05 -6.92175e-05 -0.000180293)
(0.000123121 -7.45058e-05 -0.000138602)
(0.000127426 -9.3659e-05 -0.000206896)
(0.000110891 -0.000115101 -0.000202556)
(0.000165954 -0.000149836 -0.000247671)
(0.000151562 -2.43424e-05 -0.000234761)
(0.000164757 -4.49113e-05 -0.000215493)
(0.000163049 -3.19781e-05 -0.000235889)
(0.000139216 -5.0692e-05 -0.000257565)
(0.00011992 -0.000105994 -0.000221286)
(8.50435e-05 -7.79193e-05 -0.000138805)
(0.000102715 -6.52519e-05 -0.000152598)
(0.000100277 -5.26881e-05 -0.000131598)
(6.95448e-05 -8.60387e-05 -0.00013519)
(0.000141483 -6.55874e-05 -0.000149862)
(0.000128261 -0.000128264 -9.3499e-05)
(8.95493e-05 -7.68287e-05 -0.000158021)
(9.17465e-05 -4.93347e-05 -0.00018963)
(0.000176362 -0.000170845 -0.000270257)
(0.000162656 -0.000148998 -0.000295374)
(0.0002333 -0.000136194 -0.000327133)
(0.00028326 -2.47997e-05 -0.00033577)
(0.000179311 -9.58024e-05 -0.000333841)
(0.000272081 -7.91087e-05 -0.000381837)
(0.000168025 -9.18908e-05 -0.00025842)
(0.000180119 -0.000139924 -0.000253833)
(0.000127683 -0.000105953 -0.000183964)
(0.000105892 -0.000134905 -0.00017075)
(0.000136751 -4.5508e-05 -0.000130794)
(0.000136633 -6.21097e-05 -0.000155946)
(0.000116266 -7.37627e-05 -0.000153897)
(8.85631e-05 -1.88825e-05 -0.000172023)
(9.01176e-05 -4.80185e-05 -0.000174596)
(0.000105217 -8.41454e-05 -0.000145836)
(9.34291e-05 -3.49211e-05 -0.000129764)
(8.72513e-05 -6.85092e-05 -0.000132192)
(0.000121036 -3.28684e-05 -0.000108837)
(0.000108136 -2.71488e-05 -0.00011853)
(8.64534e-05 -6.05684e-05 -0.000135459)
(0.000112046 -0.000148227 -0.000156987)
(0.000101993 -8.75326e-05 -0.000141661)
(0.000120951 -5.2553e-05 -0.000156084)
(9.90646e-05 -0.000111878 -0.000150274)
(9.86023e-05 -7.89671e-05 -0.000169198)
(0.000122351 -7.30176e-05 -0.00018848)
(8.07816e-05 -3.0276e-05 -0.000188138)
(8.98849e-05 -5.91367e-05 -0.0001313)
(0.000122978 -2.59034e-05 -0.00016529)
(0.00011465 -6.46071e-05 -0.000138458)
(0.000108799 -8.92598e-05 -0.000118171)
(5.20394e-05 -6.81852e-05 -0.000123171)
(0.000118914 -4.77129e-05 -0.000167341)
(0.000110974 -3.45394e-05 -0.000144748)
(0.000104603 -4.96996e-05 -0.000129302)
(0.000114295 4.00742e-06 -0.000191652)
(0.000130457 -5.67907e-05 -0.000172318)
(0.000137226 -3.46273e-05 -0.000171299)
(0.000103402 -3.48194e-05 -0.000156514)
(0.000153677 -7.43662e-05 -0.000222536)
(0.000146148 -0.000109877 -0.000193022)
(0.000106677 -5.44212e-05 -0.000267366)
(0.000108606 -3.69832e-05 -0.000235938)
(9.62046e-05 -0.000111816 -0.000263938)
(0.000138989 -5.34789e-05 -0.000248034)
(0.000139497 -1.18958e-05 -0.000248236)
(0.00014258 -3.78539e-05 -0.00021821)
(0.00016995 -5.5378e-05 -0.000214466)
(0.000120116 3.90324e-06 -0.000203238)
(0.000114102 -5.70185e-05 -0.000190763)
(0.000121128 -6.93455e-05 -0.000166067)
(0.000115868 -4.67544e-05 -0.000174922)
(7.45802e-05 -2.53004e-05 -0.000190311)
(8.07437e-05 -8.57513e-05 -0.000167061)
(7.79695e-05 -8.20166e-05 -0.000146152)
(0.000128727 -3.69788e-05 -0.00019697)
(0.000117339 -3.49108e-05 -0.000149078)
(0.000126704 -7.42789e-05 -0.000118935)
(0.000110015 -2.80048e-05 -0.000135372)
(0.000189301 -7.41345e-05 -0.000291987)
(0.000199716 8.4522e-06 -0.000347745)
(0.000178914 -7.41997e-05 -0.000313638)
(0.000156009 -0.000105724 -0.000286378)
(8.00238e-05 -7.45967e-05 -0.000136121)
(0.000106629 -8.97441e-05 -0.000178391)
(9.05725e-05 -8.12686e-05 -0.00015236)
(0.000127741 -3.86031e-05 -0.000189764)
(0.000590849 -0.000188149 -0.00076608)
(0.000313183 -0.000200076 -0.000479572)
(0.000425642 -5.79162e-05 -0.000620486)
(0.000446739 -7.30346e-05 -0.000589718)
(0.00029442 -5.54108e-05 -0.000372055)
(0.000209283 -0.000132386 -0.000348122)
(0.000179279 -0.000206987 -0.000321419)
(0.000204055 -7.48077e-05 -0.00033307)
(5.52288e-05 -8.03906e-05 -0.000114265)
(0.000123199 -4.576e-05 -0.000175988)
(9.91897e-05 -0.000108393 -0.000103635)
(0.000107642 -7.11409e-05 -0.00012974)
(0.000130647 -0.000124261 -0.000186461)
(0.000116309 -5.91469e-05 -0.000196014)
(8.58682e-05 -6.36168e-05 -0.000179355)
(0.000102036 -6.92697e-05 -0.000141943)
(0.000155347 -7.76467e-05 -0.000205322)
(0.000255938 -6.42914e-05 -0.000280295)
(0.000185118 -2.64253e-05 -0.000189414)
(0.000161888 -0.000135574 -0.000267483)
(7.49772e-05 -3.693e-05 -0.000153937)
(9.40136e-05 -0.000117523 -0.000147976)
(0.000118576 -1.33042e-05 -0.000171785)
(9.74622e-05 -3.02664e-05 -0.000169318)
(9.69783e-05 -3.74651e-05 -0.000171346)
(0.000128887 -0.000146001 -0.000167921)
(0.000110671 -6.48407e-05 -0.000170279)
(0.000119264 -4.02378e-05 -0.000175883)
(0.000153453 -0.000124045 -0.000259273)
(0.000197933 -0.000159838 -0.000282918)
(8.07818e-05 -0.000187471 -0.000168897)
(0.000178436 -6.42088e-05 -0.000288506)
(0.00018895 -8.45799e-05 -0.000311561)
(0.000224131 -0.000164072 -0.000294935)
(0.00022388 -0.000200141 -0.000326171)
(0.000162059 -0.000125117 -0.000363091)
(0.000134841 -9.94363e-05 -0.000138018)
(0.000101943 -1.12617e-05 -0.000243816)
(7.94259e-05 -6.85798e-05 -0.000243389)
(6.66369e-05 -7.75397e-05 -0.000174208)
(9.42889e-05 -8.97713e-06 -0.000183795)
(0.000118769 1.5065e-05 -0.000215826)
(9.61867e-05 3.81435e-06 -0.000198114)
(0.000109298 -9.33245e-05 -0.000152449)
(7.77269e-05 -3.44733e-05 -0.000154326)
(9.9969e-05 -3.02493e-05 -0.000165409)
(9.46207e-05 -5.03439e-05 -0.000164189)
(0.000102195 -7.91812e-05 -0.000140987)
(0.000134582 -8.37127e-05 -0.000166056)
(0.000126962 -8.9858e-05 -0.000146552)
(0.000145788 -9.9122e-05 -0.000163431)
(9.85396e-05 -3.91607e-05 -0.00017452)
(0.000195648 -6.40697e-05 -0.000288813)
(0.000151172 -0.000145138 -0.000251427)
(0.000215737 -2.58767e-05 -0.000317203)
(0.00021111 -4.2944e-06 -0.000286369)
(0.000104053 -0.0001132 -0.000150966)
(0.000122566 -0.00010246 -0.000174025)
(0.000114886 -4.16298e-05 -0.000136401)
(9.95756e-05 -8.64789e-05 -0.000144032)
(0.000186654 -8.09995e-05 -0.000293453)
(0.000173657 -2.94177e-05 -0.000333447)
(0.000130199 -6.96474e-05 -0.000319674)
(0.000183274 -9.30183e-05 -0.00025442)
(0.000141742 -2.10228e-05 -0.000187739)
(0.00013887 -4.29813e-05 -0.000163445)
(0.000106797 -4.0666e-05 -0.000150213)
(7.74492e-05 -9.71082e-05 -0.000140654)
(8.36577e-05 -0.000102534 -0.000141651)
(9.45743e-05 -9.07544e-05 -0.000126703)
(9.2035e-05 -8.12021e-05 -0.000126859)
(0.000124361 -2.99422e-05 -0.000128713)