/*--------------------------------*- C++ -*----------------------------------*\
  =========                 |
  \\      /  F ield         | OpenFOAM: The Open Source CFD Toolbox
   \\    /   O peration     | Website:  https://openfoam.org
    \\  /    A nd           | Version:  7
     \\/     M anipulation  |
\*---------------------------------------------------------------------------*/
FoamFile
{
    version     2.0;
    format      ascii;
    class       volScalarField;
    location    "0.25";
    object      p;
}
// * * * * * * * * * * * * * * * * * * * * * * * * * * * * * * * * * * * * * //

dimensions      [0 2 -2 0 0 0 0];

internalField   nonuniform List<scalar> 
382612
(
0.00214444
0.0018204
0.00198084
0.00197312
0.00181147
0.00210279
0.00205598
0.00201659
0.00194292
0.00162524
0.0018951
0.00193092
0.00166545
0.0018839
0.00198543
0.00202037
0.00189264
0.00194355
0.00197947
0.00199044
0.00199957
0.00201027
0.00202155
0.0020247
0.00201451
0.00200149
0.00198616
0.00222488
0.00224939
0.00227035
0.00228821
0.00215753
0.00215525
0.0021528
0.00214593
0.0021051
0.00193055
0.00199206
0.00202185
0.00203796
0.00204971
0.00206023
0.00200775
0.00199923
0.00198737
0.00197084
0.00192035
0.00193021
0.00194325
0.00195389
0.0020492
0.00204203
0.00203304
0.00202249
0.00201448
0.00190876
0.00197115
0.00201468
0.0020571
0.00200503
0.00208692
0.00193004
0.0019262
0.0024287
0.00193761
0.00190908
0.00201044
0.0021572
0.00222578
0.00228033
0.00228773
0.00228772
0.00228705
0.002352
0.00234605
0.00233954
0.00232681
0.00227736
0.0021934
0.00223616
0.0022567
0.00227234
0.00228299
0.00248079
0.00248631
0.00249358
0.00248788
0.00240844
0.00205938
0.00212511
0.00214307
0.00215175
0.00215702
0.0022958
0.00230608
0.00231925
0.00232277
0.00228575
0.00197161
0.0020321
0.00203667
0.0020435
0.00205089
0.0020597
0.00197758
0.00197193
0.0019655
0.00196206
0.00182302
0.00184394
0.00185878
0.00186926
0.00203242
0.00202337
0.00201261
0.00200075
0.00198979
0.00175429
0.00182854
0.00185457
0.00186462
0.0018701
0.0019915
0.0019819
0.00197136
0.00195727
0.00191533
0.00170011
0.00185734
0.00194325
0.00196009
0.00196634
0.00196794
0.0021346
0.00214096
0.0021501
0.00216148
0.00224502
0.00224222
0.00214266
0.00211636
0.00210044
0.00209044
0.00188557
0.00187707
0.00186758
0.0018623
0.00196333
0.00197143
0.00197773
0.0019811
0.00197133
0.00197145
0.00196888
0.00196666
0.0019891
0.00191121
0.00188079
0.00188279
0.00188794
0.00189156
0.00179959
0.00194549
0.00202382
0.00179179
0.00194509
0.0018935
0.00208052
0.00226929
0.00177908
0.00181865
0.00221638
0.00180806
0.00184451
0.00180774
0.00176411
0.00176571
0.00177533
0.00178159
0.00212601
0.0021339
0.00214681
0.00216287
0.00215828
0.00188626
0.0018543
0.00184493
0.0018443
0.00184561
0.00211048
0.00212353
0.00214478
0.00216898
0.00218429
0.00189858
0.00205096
0.00205339
0.00205129
0.00204594
0.00204173
0.00185663
0.00185712
0.00185875
0.00186496
0.00165364
0.00165994
0.00166646
0.00166892
0.00195344
0.00195526
0.00195719
0.0019604
0.00198707
0.00166228
0.00168623
0.0019927
0.00192705
0.00166041
0.00183173
0.001962
0.00169364
0.00195494
0.00193516
0.00165694
0.00178605
0.00197063
0.00186308
0.0015806
0.00169988
0.00192168
0.00187081
0.0016767
0.00164006
0.00189247
0.00189937
0.0016799
0.00166972
0.00189342
0.00196758
0.00187847
0.00198463
0.00200374
0.00206138
0.00207282
0.0018997
0.00194752
0.00195678
0.00196213
0.00196794
0.00197388
0.00204012
0.00204137
0.00203833
0.00201486
0.00215761
0.00214079
0.00212707
0.00211432
0.00236156
0.00235631
0.00235173
0.00234105
0.00227571
0.0022289
0.00221713
0.0022031
0.00220456
0.00220373
0.00220552
0.00200186
0.00200476
0.00200419
0.00199794
0.00200071
0.00225356
0.00222356
0.00222141
0.00222512
0.00222862
0.00216112
0.00215298
0.00214097
0.00213374
0.00216002
0.00227603
0.002246
0.00224444
0.00225149
0.00225738
0.00238561
0.00238671
0.0023892
0.0023876
0.0023675
0.0023246
0.00237858
0.00239261
0.00239814
0.00240081
0.00262559
0.00263033
0.00263722
0.0026313
0.00255415
0.00210578
0.00208943
0.00209684
0.00211307
0.00212643
0.00221613
0.00221259
0.00220663
0.00219554
0.00215419
0.00201564
0.00204655
0.00206555
0.00208215
0.00209352
0.00231769
0.00232764
0.00234381
0.00235016
0.00229214
0.00184773
0.00183262
0.00183573
0.00184849
0.0018605
0.00195006
0.00194725
0.00195866
0.00197183
0.00198105
0.00191938
0.001908
0.00189438
0.00189003
0.00190272
0.00229772
0.00230849
0.00229418
0.00227492
0.00226112
0.0017679
0.00175855
0.00174766
0.00174974
0.00179242
0.00221533
0.00219669
0.00217396
0.00215219
0.00213789
0.00170097
0.00169563
0.00168941
0.00169729
0.00176854
0.00179757
0.0017404
0.00173307
0.00173996
0.00174683
0.00206516
0.00207924
0.00210042
0.00212512
0.00215958
0.00179111
0.0017151
0.00170755
0.00171515
0.00172187
0.00206225
0.0020728
0.0020885
0.00210533
0.00210569
0.00190046
0.00199819
0.00199694
0.00199692
0.00199332
0.00198927
0.00187234
0.00187239
0.00187221
0.00187412
0.00173915
0.00174024
0.00174194
0.00174203
0.00194009
0.00194453
0.00194856
0.00195228
0.0019642
0.00174779
0.00192273
0.00187652
0.00186493
0.00186195
0.00186005
0.00179955
0.0018817
0.00202897
0.00197872
0.00195967
0.00194969
0.00194335
0.00186253
0.0018641
0.00186422
0.00185943
0.00198247
0.00197933
0.00197466
0.00197011
0.00199259
0.00199541
0.00199852
0.002001
0.00189842
0.0019032
0.00190561
0.00190579
0.00200559
0.00201123
0.00201968
0.00203006
0.00205487
0.00189778
0.00201045
0.00205112
0.0020217
0.00182281
0.00197251
0.0019515
0.00177259
0.00172794
0.00194035
0.00195186
0.00177242
0.0020479
0.00205349
0.00203021
0.00199749
0.00184981
0.00198931
0.00194585
0.00195906
0.00185978
0.00190588
0.00196961
0.00191926
0.0019064
0.0019042
0.00190418
0.00189968
0.00189773
0.00189512
0.00189593
0.00190827
0.00205816
0.00205133
0.00204138
0.00203745
0.00203763
0.00205354
0.00205607
0.00206159
0.00207206
0.00209366
0.00200332
0.00202764
0.00202481
0.00202333
0.00202072
0.0020187
0.00199928
0.00199801
0.00199573
0.00199353
0.00190228
0.00190626
0.00190801
0.00190786
0.00197936
0.00198185
0.00198446
0.00198669
0.00199573
0.00189165
0.00199315
0.001978
0.00197278
0.00196861
0.00196557
0.00195158
0.0019297
0.00186869
0.00185457
0.00185693
0.00186042
0.00186182
0.00194565
0.00194555
0.001945
0.00194481
0.00195199
0.00202252
0.00202716
0.00202285
0.00202055
0.0020207
0.00200955
0.00200895
0.00200963
0.00201554
0.00203326
0.00207346
0.00206783
0.0020641
0.00206179
0.00206065
0.0020083
0.00200619
0.00200317
0.00200094
0.0020329
0.00203165
0.00202922
0.00202741
0.00204626
0.00204685
0.00204766
0.00204797
0.00204445
0.00204589
0.00204869
0.00205062
0.00209905
0.00209565
0.00209124
0.00208757
0.00208988
0.00205188
0.00204656
0.00205684
0.00210099
0.00209784
0.00206331
0.0020365
0.00200443
0.00187539
0.00198674
0.00201529
0.00192278
0.00211263
0.00207219
0.00205305
0.00207536
0.00200355
0.00203231
0.00208344
0.002023
0.00201986
0.00194182
0.00188706
0.00188093
0.00188188
0.00188328
0.00188319
0.00196632
0.00196725
0.00196651
0.00196066
0.00194524
0.00202945
0.00203701
0.00203754
0.0020388
0.00204082
0.00207423
0.00207308
0.0020719
0.00207144
0.00206749
0.00211436
0.00212586
0.00212905
0.00213182
0.00213446
0.00216212
0.00215777
0.0021524
0.00214657
0.00213811
0.00210015
0.00210464
0.00210706
0.00210997
0.00211199
0.00216123
0.00215617
0.00215052
0.00214315
0.0021219
0.00208856
0.00205831
0.0020647
0.002067
0.00206715
0.0020672
0.00208862
0.0020854
0.00208223
0.00208227
0.00208696
0.00208889
0.00209188
0.00209462
0.00206052
0.00206037
0.00206041
0.00205973
0.00205676
0.00208927
0.00211659
0.00206944
0.00206582
0.00209851
0.00207431
0.00205058
0.00208438
0.0021343
0.00218307
0.00210462
0.0020817
0.00215167
0.00216123
0.00208508
0.00213966
0.00223127
0.00214118
0.00207828
0.00217624
0.00221472
0.00213041
0.00204843
0.00195709
0.00184588
0.00176492
0.00177082
0.00177491
0.00177453
0.00177282
0.00188482
0.00188304
0.0018822
0.00188585
0.00189305
0.00191311
0.00191751
0.00191912
0.00192267
0.00192597
0.00202545
0.00202534
0.00202334
0.00201539
0.00199098
0.00205569
0.00206739
0.00207135
0.00207477
0.00207794
0.00210124
0.0020997
0.00209811
0.0020939
0.00206905
0.00207173
0.00209675
0.00210505
0.00210951
0.00211235
0.00215437
0.00215064
0.00214656
0.00214219
0.00213022
0.00215327
0.00216152
0.00216693
0.00217149
0.00217485
0.00213013
0.00212649
0.00212185
0.00211608
0.00210618
0.00208305
0.00205944
0.00206556
0.00206887
0.00207
0.0020701
0.00209435
0.00209111
0.00208745
0.00208482
0.0020776
0.0020795
0.00208283
0.00208616
0.00205863
0.00205715
0.00205452
0.00205005
0.00204792
0.00208097
0.00212605
0.00213101
0.00213477
0.00213856
0.00214196
0.00212263
0.00211841
0.00211341
0.00210921
0.00210664
0.00205974
0.00203946
0.00205183
0.00205651
0.00205975
0.00206348
0.00207775
0.0020723
0.00206654
0.00206293
0.00206853
0.00207196
0.00207457
0.0020768
0.00207899
0.00207578
0.00207379
0.00207073
0.00205649
0.00205921
0.00208091
0.00205018
0.00204211
0.00201661
0.00210128
0.00205292
0.00209048
0.00212319
0.00215404
0.00208616
0.00208324
0.0020979
0.00202546
0.002026
0.00202569
0.00204743
0.00226719
0.00212756
0.00212744
0.00222918
0.00218683
0.00211161
0.00205172
0.00206461
0.00197734
0.00199815
0.00200782
0.00193367
0.00190583
0.00200566
0.00200987
0.00193369
0.00199768
0.00202409
0.00199998
0.00188615
0.00205751
0.00193999
0.00195074
0.0018746
0.00198103
0.00193451
0.00191835
0.00191376
0.00191242
0.00184897
0.00185097
0.00185733
0.00187081
0.00188415
0.00189447
0.00188699
0.00187814
0.00187389
0.0018728
0.00173145
0.00173339
0.00173454
0.00173143
0.00172725
0.00168107
0.00165256
0.00163923
0.00163416
0.00163227
0.0016583
0.00165848
0.00166088
0.00166752
0.00167602
0.00168169
0.00167604
0.00167469
0.00167603
0.0016778
0.00182436
0.00182597
0.00182622
0.00182046
0.00180547
0.0018326
0.00185815
0.00186698
0.0018669
0.00186518
0.00194699
0.00194237
0.00193722
0.00193382
0.00192861
0.00202498
0.00203604
0.00204085
0.00204556
0.0020492
0.00203562
0.00203144
0.00202702
0.00202451
0.00201611
0.00208354
0.00208242
0.0020833
0.00208658
0.00208973
0.00209236
0.00208908
0.00208422
0.00207827
0.00207481
0.00213746
0.00214804
0.00215142
0.00215414
0.00215681
0.00211608
0.00211474
0.00211283
0.00211109
0.00210598
0.00211485
0.00212923
0.00212919
0.00212802
0.0021275
0.00204044
0.00203665
0.00203182
0.00202788
0.00205761
0.00206356
0.00206696
0.00207006
0.00204867
0.00204529
0.00204113
0.00203497
0.00202799
0.00202415
0.00202602
0.00203138
0.00203588
0.00203898
0.00203004
0.00203001
0.00202934
0.00202866
0.0020234
0.00201003
0.00201148
0.00201076
0.00201093
0.00201134
0.00199512
0.00199214
0.00198815
0.00198379
0.00200785
0.00201154
0.00201397
0.00201657
0.00206261
0.00206057
0.0020598
0.00205765
0.00201844
0.00201909
0.00202126
0.00202318
0.00203681
0.00203986
0.00204475
0.00205141
0.00205718
0.0020201
0.00204842
0.00204029
0.00201904
0.00190931
0.00197336
0.00205579
0.00199875
0.00200931
0.00203943
0.00204958
0.00204364
0.00196856
0.00200037
0.0019973
0.00197378
0.00203273
0.00200391
0.00206266
0.00210949
0.00206316
0.00205121
0.00204111
0.00203946
0.00192602
0.00199457
0.00198848
0.00188793
0.00202354
0.00205676
0.00204356
0.00207172
0.00204268
0.0021112
0.00212339
0.00210479
0.00202309
0.00188284
0.00170383
0.00152538
0.00134543
0.00117759
0.00112314
0.00112674
0.00112723
0.00112255
0.00111749
0.00122405
0.00122206
0.00122118
0.00122586
0.00124175
0.00141044
0.0014358
0.00143998
0.00143514
0.00142975
0.00150803
0.00150515
0.00150233
0.00150388
0.00150992
0.00150854
0.00152053
0.00151935
0.00151798
0.0015176
0.00161642
0.00161966
0.00162125
0.00161341
0.00157071
0.00167592
0.00166772
0.00166791
0.00167352
0.00167892
0.00170242
0.00170275
0.00170254
0.00169855
0.00167419
0.0016889
0.00171738
0.00172409
0.00172392
0.00172196
0.0018148
0.00180848
0.00180233
0.00180184
0.0018146
0.00190159
0.0019272
0.00193646
0.00193838
0.00193808
0.00198907
0.00198601
0.00198201
0.00197733
0.0019705
0.00203353
0.00205576
0.00206253
0.00206414
0.00206475
0.00197942
0.00197828
0.00197632
0.00197416
0.00197234
0.00210178
0.00209614
0.00209217
0.0020917
0.00209291
0.00203054
0.00202702
0.00202244
0.00202085
0.00203538
0.00203961
0.00203147
0.00203552
0.00204061
0.00204411
0.00205352
0.00205624
0.00206219
0.00207129
0.00207297
0.00193652
0.00192961
0.0019332
0.00193623
0.00193802
0.00191914
0.00191702
0.00191371
0.00191149
0.0019244
0.00194152
0.00194487
0.00194582
0.00194576
0.00194492
0.00196922
0.0019669
0.00196384
0.00196177
0.00195652
0.00193955
0.00198119
0.00198531
0.0019901
0.00199473
0.00199809
0.00196994
0.00196575
0.00195935
0.00195074
0.00196742
0.00196938
0.00197121
0.00197234
0.00201112
0.00201052
0.00200985
0.00200779
0.00200273
0.00197247
0.00201489
0.00203737
0.00202156
0.00196084
0.00191422
0.00200312
0.00198779
0.00190021
0.00196724
0.00200684
0.00193602
0.00180001
0.00202341
0.00203047
0.00195283
0.00191879
0.00191873
0.00196705
0.00199012
0.00197108
0.00200082
0.00201021
0.00201753
0.00199648
0.00190926
0.00197014
0.00196086
0.00191186
0.00186685
0.00182926
0.00179856
0.00179506
0.00179893
0.00177876
0.00170966
0.00158518
0.00141925
0.00124495
0.00107273
0.00091375
0.000884664
0.000894772
0.000893686
0.000887738
0.000882146
0.00093094
0.000928616
0.000926918
0.000929142
0.00093918
0.00116206
0.00118247
0.00118332
0.00117655
0.00116959
0.0012481
0.00124491
0.00124141
0.00124068
0.00124516
0.00139604
0.00139309
0.00139338
0.00139526
0.00139688
0.00140123
0.00139688
0.00139179
0.00139006
0.0013913
0.00154842
0.00154022
0.00154039
0.00154452
0.00154832
0.0015156
0.00151213
0.00150946
0.00151268
0.00152051
0.00167731
0.00165718
0.00165012
0.00165085
0.00165301
0.00174147
0.00174269
0.00174183
0.00173745
0.00173668
0.00190827
0.00189962
0.00189501
0.00189679
0.00190052
0.00196597
0.00196369
0.00196227
0.00196774
0.00199016
0.00194941
0.00194462
0.00193478
0.00193185
0.00193217
0.00199101
0.00199215
0.00199599
0.00200668
0.00202068
0.00195592
0.00194676
0.00194733
0.0019491
0.00195015
0.0020225
0.00202143
0.00201953
0.00201594
0.00200525
0.00203233
0.00197697
0.00193959
0.0018452
0.00181385
0.00180935
0.00181145
0.00181387
0.00181524
0.00176259
0.00176223
0.00176099
0.0017618
0.00178079
0.00181155
0.00180331
0.00180464
0.00180561
0.001806
0.00183431
0.00183195
0.0018281
0.00182576
0.00183767
0.00187459
0.00187637
0.0018776
0.00187808
0.0018785
0.00183669
0.00183702
0.00183748
0.00184033
0.00185994
0.00205071
0.0020405
0.00202514
0.00201553
0.00201099
0.00199101
0.0019938
0.00199962
0.00201427
0.00205949
0.00198246
0.00201838
0.00201442
0.00201107
0.002008
0.00200607
0.00195343
0.00195536
0.00195839
0.00196548
0.0018842
0.00189247
0.00189588
0.00189757
0.00201551
0.0020157
0.00201576
0.00201204
0.0019975
0.00186587
0.00191002
0.00203759
0.00198885
0.00189796
0.00188114
0.00201371
0.00187569
0.00186437
0.00188878
0.00189612
0.00189643
0.00189519
0.00179303
0.00179291
0.00179188
0.00179193
0.0018055
0.00187324
0.00189488
0.00189234
0.00188733
0.00188353
0.00190514
0.00191128
0.00191794
0.00191833
0.00188414
0.00191372
0.00196389
0.00197165
0.00197202
0.00197129
0.00197112
0.00193075
0.00193479
0.00193807
0.00193557
0.00189262
0.0018966
0.00190177
0.00190508
0.00199593
0.00199454
0.0019927
0.00198864
0.00198264
0.00190655
0.0019891
0.00201118
0.00198681
0.00193508
0.00186074
0.00196063
0.00194773
0.00182341
0.00181127
0.00193324
0.00191395
0.00180608
0.00177984
0.00193042
0.00204639
0.00214056
0.00185743
0.00193562
0.00196116
0.00189111
0.00194225
0.00198706
0.00200561
0.00196762
0.0019511
0.00200099
0.00196103
0.00185622
0.00185488
0.00197053
0.00198519
0.00191197
0.00197674
0.00200941
0.00198567
0.00192625
0.00192409
0.00199761
0.00200523
0.00198065
0.00174551
0.00191542
0.00188006
0.00165332
0.00166603
0.00188899
0.00194889
0.00192864
0.00186523
0.00194485
0.00190302
0.00173725
0.00166026
0.00188354
0.00190406
0.00167436
0.0018577
0.00198109
0.00193273
0.00172049
0.00169495
0.00192325
0.00195029
0.00177535
0.00168986
0.00193278
0.00192231
0.00167892
0.00187737
0.00177959
0.00169062
0.00162949
0.00157741
0.00157477
0.00157942
0.00158171
0.00159493
0.00159354
0.00159191
0.00160096
0.00165602
0.00205013
0.00198239
0.00195884
0.00194448
0.00193657
0.00167947
0.00167475
0.00166958
0.0016774
0.00175498
0.00201847
0.00199572
0.00197744
0.00196708
0.00196184
0.00182934
0.00182225
0.00181531
0.0018207
0.00187897
0.00180406
0.0017537
0.00156527
0.00151777
0.00147598
0.00147395
0.00147764
0.00147838
0.00157226
0.00157369
0.00157371
0.00157588
0.00160489
0.00189953
0.00185131
0.00183035
0.00182046
0.00181595
0.00164995
0.00164697
0.00164277
0.00164725
0.00170449
0.00197192
0.00196463
0.00194957
0.00194026
0.00193524
0.00175928
0.00175569
0.00175322
0.00176477
0.00183768
0.0017723
0.00172945
0.00160397
0.00153978
0.00148389
0.00141559
0.0014056
0.00140642
0.00140757
0.00170388
0.00170896
0.0017194
0.001738
0.00175298
0.00173128
0.00170319
0.00168403
0.00167552
0.00167236
0.00163898
0.00163885
0.00163836
0.00163999
0.00166714
0.00177095
0.00172696
0.00171963
0.00171983
0.00172065
0.00173531
0.00180681
0.00171749
0.00158313
0.00141832
0.00135537
0.00133819
0.00133635
0.00133396
0.00133083
0.00153612
0.0015376
0.0015446
0.00156146
0.00158322
0.00152813
0.00151591
0.00150867
0.00150731
0.00150832
0.00138407
0.00138879
0.00139271
0.00139025
0.00138132
0.00127444
0.00124557
0.00123536
0.00123335
0.00123346
0.00109361
0.00109799
0.00110222
0.00110272
0.00110674
0.000991045
0.00097249
0.000961157
0.000956421
0.000954451
0.000932329
0.000932842
0.000934795
0.000942502
0.000965031
0.000812172
0.000798156
0.000793183
0.000792501
0.000792921
0.000774089
0.000776145
0.000780299
0.000787578
0.000802372
0.000715341
0.000690243
0.000686766
0.000686134
0.000685966
0.000687056
0.000683725
0.000681254
0.000683813
0.000707607
0.000901444
0.000910918
0.000909341
0.000902751
0.000896421
0.000931866
0.000928594
0.000924817
0.000925661
0.000942831
0.00109375
0.00108656
0.00108787
0.00109152
0.00109502
0.00129155
0.00129763
0.00130446
0.0013033
0.001277
0.00135555
0.00136911
0.00137044
0.00136904
0.00136849
0.00134448
0.00134963
0.00135384
0.00135111
0.00134154
0.00143518
0.00141977
0.00141845
0.0014199
0.00142204
0.00158632
0.00158708
0.00158846
0.00158745
0.00158176
0.00155204
0.00153836
0.00153787
0.00153689
0.00153417
0.00177681
0.00177738
0.00178231
0.00179274
0.00180694
0.00160959
0.00157912
0.00157644
0.00158024
0.00158356
0.00170113
0.00170108
0.00170141
0.00170262
0.00170721
0.00169037
0.00166504
0.00166186
0.00166128
0.00166068
0.00188577
0.00189024
0.00190107
0.0019214
0.00193827
0.00197187
0.00193908
0.00192622
0.0019208
0.00191821
0.00169454
0.00169162
0.001687
0.00168345
0.00169787
0.00176492
0.00175461
0.00175612
0.00175747
0.00175786
0.00191872
0.00192722
0.00194255
0.00196612
0.00198155
0.00201967
0.0020199
0.00200213
0.00198837
0.00198042
0.00201341
0.0020168
0.00202421
0.00203782
0.00205035
0.00209452
0.0020752
0.00207098
0.00206924
0.00206942
0.00197372
0.00197252
0.0019719
0.00197586
0.00199467
0.00191219
0.00193116
0.00194925
0.00195507
0.00196025
0.00196351
0.0019809
0.001983
0.00198501
0.00197545
0.00200947
0.00200883
0.00200541
0.00200316
0.00200292
0.00200236
0.00200223
0.00200415
0.00201166
0.00198735
0.00195158
0.00200201
0.00197123
0.001915
0.00207961
0.00204037
0.00199358
0.00195895
0.00183102
0.00196064
0.00195567
0.00180863
0.00176993
0.00189937
0.0019641
0.00189453
0.00188566
0.0019635
0.00198961
0.0019303
0.00196323
0.00198704
0.00199955
0.00200432
0.0020191
0.00199314
0.0019752
0.00202507
0.00190504
0.00167978
0.00156216
0.00142718
0.00130397
0.00119582
0.00110823
0.00104316
0.000991033
0.000937443
0.000867568
0.000783104
0.00070353
0.00063248
0.000554769
0.000576712
0.000566543
0.000566286
0.000568068
0.000569503
0.000680083
0.00068788
0.000697311
0.00070288
0.000699597
0.000707461
0.000699132
0.000694791
0.000690993
0.000688203
0.000726065
0.000733061
0.00074079
0.00074435
0.000743036
0.000826635
0.000798408
0.000795112
0.000799285
0.000803972
0.000948851
0.000956632
0.000964723
0.000965099
0.000952044
0.00106141
0.00104427
0.00104042
0.00104318
0.00104584
0.00122108
0.00121826
0.00121687
0.00122136
0.00124035
0.00117007
0.0011738
0.00117291
0.00117046
0.00116795
0.00112574
0.0011315
0.00113591
0.00113677
0.00114721
0.00138284
0.00135667
0.00134431
0.00134315
0.001345
0.0014808
0.00148174
0.00148612
0.00150076
0.00154335
0.00137915
0.00137301
0.00137015
0.00136809
0.00136687
0.00134405
0.00134731
0.00135039
0.00135345
0.00137427
0.00166497
0.00165588
0.00163725
0.00162678
0.00162203
0.0016856
0.00168902
0.00169642
0.0017141
0.00176448
0.00145646
0.00144578
0.00144639
0.0014496
0.00145115
0.00157114
0.00157097
0.00157021
0.00157
0.00158053
0.00164827
0.00161824
0.00161276
0.00161085
0.00160955
0.00190042
0.00191056
0.00192776
0.00194965
0.00194712
0.00160167
0.00160283
0.00160839
0.00161148
0.00161303
0.00167551
0.00167324
0.00166747
0.00165516
0.00164347
0.00168355
0.00168993
0.00170311
0.00171212
0.0017168
0.00182656
0.00182232
0.0018145
0.00179968
0.0017801
0.00170364
0.00172684
0.00174343
0.00175177
0.00175566
0.00190044
0.00189715
0.00189134
0.00187542
0.00182836
0.0020478
0.00204321
0.00203267
0.00202621
0.00202337
0.00196908
0.00197713
0.00198553
0.00198408
0.00195391
0.00195579
0.00195879
0.00196048
0.00197185
0.00196862
0.00196403
0.0019598
0.00193333
0.00193853
0.00193293
0.00192646
0.0020941
0.00209553
0.00209976
0.00210182
0.00206745
0.00188056
0.00196692
0.00201745
0.00189524
0.0018381
0.00200075
0.00199537
0.00186423
0.00184302
0.0020071
0.00202208
0.00202417
0.00202169
0.00202047
0.00187399
0.00187133
0.001865
0.00185621
0.0019726
0.00197678
0.00196837
0.00196254
0.0018268
0.00182703
0.00182525
0.00181645
0.00180448
0.00209809
0.00202232
0.00200586
0.00199513
0.00198925
0.0020084
0.00200948
0.00201222
0.00202076
0.0021418
0.00190098
0.00198673
0.00196839
0.00196704
0.00196759
0.00196674
0.00196121
0.00196853
0.00197626
0.00197253
0.00192265
0.00193548
0.00193641
0.00193676
0.00195862
0.00195873
0.00195801
0.00195494
0.00193696
0.00182272
0.00182456
0.00198325
0.00202012
0.00199251
0.00185566
0.00196042
0.00195324
0.00183143
0.00211087
0.00203419
0.00199484
0.0020546
0.00197595
0.00198481
0.00199296
0.00188637
0.00180962
0.00170267
0.00160866
0.00145144
0.00131681
0.00117382
0.00104407
0.000927432
0.000829776
0.000749133
0.000685332
0.000630958
0.000590973
0.000534662
0.000496192
0.00046114
0.000455983
0.000459688
0.000458135
0.000454683
0.000451713
0.000470956
0.000469196
0.000467858
0.000470731
0.000489619
0.000543222
0.000545863
0.000542825
0.000536761
0.000530995
0.000575392
0.000574455
0.000574467
0.000580649
0.00060082
0.000718878
0.000693507
0.000684009
0.000681081
0.000680028
0.000759092
0.000765033
0.000770585
0.000772664
0.000777924
0.000942535
0.000911903
0.000902366
0.00090262
0.000905252
0.00104684
0.00104814
0.00105193
0.0010649
0.0011023
0.00100254
0.0009947
0.000990872
0.000987635
0.000985637
0.000952531
0.000957784
0.000962289
0.000965733
0.000985712
0.00125649
0.00123167
0.00121308
0.0012042
0.00120113
0.00133351
0.00133711
0.00134454
0.00136356
0.00142178
0.00116735
0.00116433
0.00116218
0.00116089
0.00115979
0.00119203
0.00119538
0.00119872
0.00120353
0.00123012
0.00158951
0.00158181
0.00155808
0.00154049
0.00153164
0.00160228
0.00161144
0.00162901
0.00165549
0.00166926
0.00180459
0.00177458
0.00175406
0.00174115
0.00173454
0.00138399
0.00138112
0.00137286
0.0013581
0.00135101
0.00150056
0.0015023
0.00151232
0.00151954
0.00152263
0.00163666
0.00163474
0.0016321
0.00163006
0.00163036
0.00173345
0.00174058
0.0017426
0.00174299
0.00174313
0.00186306
0.00186324
0.00186301
0.0018602
0.00184782
0.00181311
0.00181771
0.00181976
0.00182001
0.00181951
0.00181706
0.0018115
0.00180159
0.00178422
0.00175988
0.00175636
0.00175219
0.00175864
0.00176398
0.00176711
0.00196381
0.00197109
0.00198319
0.00199765
0.00199863
0.00187885
0.00192239
0.00192053
0.0019123
0.00190524
0.00189031
0.00189273
0.00189374
0.00189046
0.00186905
0.00201082
0.00199889
0.00199212
0.00198636
0.00198334
0.00187904
0.00170309
0.00198239
0.00192182
0.0017459
0.00216106
0.00171414
0.00176346
0.00231478
0.00178815
0.00178572
0.00255284
0.00175782
0.00211318
0.00192671
0.00238284
0.0018423
0.00172497
0.00150465
0.00132633
0.00111296
0.00097246
0.000842043
0.000734353
0.000645038
0.000569648
0.000521473
0.000481085
0.000444685
0.000417582
0.0003807
0.000409138
0.000422371
0.000423141
0.000421527
0.000420103
0.000342808
0.000346215
0.000348478
0.000349398
0.000355973
0.000471639
0.000455373
0.000445391
0.000441126
0.000439601
0.000540791
0.0005462
0.000554045
0.000564929
0.000587428
0.000552894
0.000525606
0.000520809
0.000517292
0.000513312
0.000726552
0.000733086
0.000744757
0.000766027
0.00079852
0.000936436
0.000896785
0.000880495
0.000869486
0.000862099
0.000820506
0.000824811
0.000828607
0.000833869
0.000864914
0.00120335
0.00116809
0.00114168
0.00112659
0.00111884
0.00127044
0.0012777
0.0012892
0.00130479
0.00133439
0.000997323
0.00097773
0.000978147
0.000982917
0.000986194
0.00112598
0.00112583
0.00112504
0.00112629
0.00114191
0.00127268
0.00128018
0.00127898
0.00127608
0.00127353
0.00142935
0.00143817
0.00144721
0.00144661
0.0014098
0.00149941
0.0015339
0.00153148
0.00152063
0.0015097
0.00170194
0.0017113
0.00172444
0.00172935
0.00169144
0.00171485
0.00171891
0.00171971
0.0017203
0.00172022
0.00170802
0.0017071
0.0017039
0.00169823
0.00168722
0.00182545
0.00184392
0.00185051
0.00185421
0.0018569
0.00188759
0.00188918
0.00189143
0.00188907
0.00186115
0.00181437
0.00180434
0.00180515
0.0018082
0.00181036
0.00201307
0.00202304
0.00203862
0.00204911
0.00201609
0.00179879
0.00173747
0.00173589
0.00174662
0.00175508
0.00189836
0.00189733
0.00189493
0.00189325
0.00189854
0.0018648
0.00183694
0.00183212
0.00183059
0.00182887
0.00195587
0.00196464
0.00197679
0.00198625
0.00197574
0.00184341
0.00190742
0.00190416
0.00189168
0.00188125
0.001969
0.00197862
0.00199418
0.00200092
0.00192423
0.00180997
0.00181602
0.00182123
0.0018228
0.00182223
0.00199734
0.00200381
0.00200977
0.00200786
0.00198448
0.001981
0.00187254
0.00177877
0.00198742
0.00199325
0.00181976
0.00185672
0.00185901
0.00185508
0.00185054
0.00196694
0.00197261
0.00197842
0.00198354
0.0020051
0.00187425
0.00183512
0.00197609
0.00193475
0.00178827
0.00184114
0.00195315
0.00192169
0.0017554
0.00177438
0.00192513
0.00197118
0.00193596
0.00225467
0.00209309
0.00206064
0.00215255
0.00209827
0.00203054
0.00196598
0.00185236
0.00188977
0.00197981
0.0019826
0.00193449
0.00188333
0.00196982
0.00195331
0.00184912
0.00192989
0.00197524
0.00203351
0.00210101
0.00209566
0.0020358
0.00203594
0.00209626
0.00195765
0.00200675
0.00199056
0.00192184
0.00190482
0.00197499
0.00197141
0.00189781
0.00191715
0.00196612
0.00188819
0.00173958
0.00184381
0.00192609
0.00195392
0.00187051
0.00186626
0.00196502
0.0019473
0.00182659
0.00189816
0.00195514
0.00193594
0.00189752
0.00175294
0.00189867
0.00181258
0.00163931
0.00160818
0.00183667
0.0018716
0.00169784
0.00175705
0.00190015
0.00190256
0.00173175
0.00170314
0.00196685
0.0019549
0.00180188
0.00166924
0.0014788
0.00137428
0.00131478
0.00134179
0.00142769
0.00158048
0.00170257
0.0019291
0.00204598
0.00208859
0.00214727
0.00216127
0.00217234
0.00218105
0.00239239
0.00240364
0.00241599
0.00241498
0.00234447
0.0018801
0.00192978
0.00194239
0.00195109
0.0019571
0.00235145
0.00236603
0.00238341
0.00238543
0.00232868
0.00181144
0.00179049
0.00179384
0.00180316
0.00180963
0.00223511
0.00225226
0.00227566
0.00229004
0.00223959
0.0022201
0.00227139
0.00227409
0.00226572
0.00225803
0.00178946
0.00178752
0.00178213
0.00177444
0.00175891
0.00162851
0.00165128
0.0016505
0.00165071
0.00165044
0.00199721
0.00200478
0.00201499
0.00202484
0.00204929
0.00163314
0.00161076
0.00161317
0.00161839
0.00162009
0.00157192
0.00157184
0.00157237
0.00157838
0.00159854
0.0019929
0.00194468
0.00192522
0.00191291
0.00190514
0.0018087
0.00181915
0.00183745
0.00186347
0.00187231
0.00184785
0.00176903
0.00174564
0.00173548
0.00172979
0.00170573
0.00171365
0.00173031
0.00175598
0.00178989
0.00155249
0.0014785
0.00146531
0.00146848
0.00147346
0.00127914
0.00123556
0.00123668
0.00124105
0.00124129
0.00127837
0.00127683
0.00127336
0.00127633
0.001318
0.00168131
0.00165065
0.0016244
0.00160764
0.00159962
0.00138881
0.00138983
0.00139647
0.00142355
0.00153593
0.00145434
0.00143795
0.00143811
0.00143802
0.00143672
0.00145828
0.00145718
0.001456
0.00145897
0.00148845
0.00154696
0.00142949
0.0013097
0.00111651
0.00105893
0.00102947
0.00102815
0.00102765
0.00102557
0.0013238
0.00132907
0.0013394
0.00136122
0.00139579
0.0013412
0.00131402
0.001297
0.00128947
0.00128582
0.00109393
0.00109808
0.00110237
0.00110355
0.0011071
0.00103976
0.00101883
0.00100456
0.00099639
0.000991667
0.000869652
0.000873629
0.000881906
0.000897851
0.000917806
0.000846842
0.000832125
0.000822725
0.000818372
0.000816397
0.000703804
0.000708013
0.000712429
0.000715492
0.000723691
0.000741504
0.000744948
0.000741336
0.000733624
0.000726305
0.000579053
0.000579023
0.000580589
0.000587048
0.000605925
0.000626527
0.000610109
0.000607472
0.000607868
0.000608182
0.00058518
0.000586354
0.000588783
0.000595874
0.000618588
0.00060525
0.000607028
0.000601649
0.00059354
0.000586747
0.000463857
0.0004631
0.000462418
0.000464221
0.000477116
0.000509233
0.000489966
0.00048776
0.000488736
0.00048969
0.000489499
0.000490158
0.000491502
0.000494075
0.000503475
0.0005571
0.000566412
0.000563911
0.000558029
0.000552919
0.000533497
0.000532254
0.00053131
0.000534649
0.000555074
0.000634814
0.000617841
0.000614344
0.000615124
0.000616282
0.00058883
0.000543999
0.000538316
0.000530199
0.000526556
0.000523812
0.000521823
0.000515279
0.000501685
0.000485747
0.000507129
0.000510611
0.000509045
0.000506893
0.000472543
0.000469247
0.000465732
0.000465863
0.000481329
0.000453334
0.000457219
0.000458631
0.000458246
0.00045746
0.000423189
0.000420535
0.000417036
0.000414345
0.000415701
0.000355784
0.000354551
0.000358131
0.000364113
0.000368762
0.000395143
0.000394016
0.000393015
0.000395731
0.000409256
0.000441578
0.000439462
0.000437811
0.000433875
0.000429878
0.000493724
0.000492954