/*--------------------------------*- C++ -*----------------------------------*\
  =========                 |
  \\      /  F ield         | OpenFOAM: The Open Source CFD Toolbox
   \\    /   O peration     | Website:  https://openfoam.org
    \\  /    A nd           | Version:  7
     \\/     M anipulation  |
\*---------------------------------------------------------------------------*/
FoamFile
{
    version     2.0;
    format      ascii;
    class       volVectorField;
    location    "0.25";
    object      wallShearStress;
}
// * * * * * * * * * * * * * * * * * * * * * * * * * * * * * * * * * * * * * //

dimensions      [0 2 -2 0 0 0 0];

internalField   uniform (0 0 0);

boundaryField
{
    outlet1
    {
        type            calculated;
        value           uniform (0 0 0);
    }
    Wall
    {
        type            calculated;
        value           nonuniform List<vector> 
40276
(
(0.000273697 4.77039e-05 0.000174271)
(-0.000164701 -5.21569e-06 0.000369688)
(-0.000169948 -4.44792e-06 0.000366507)
(0.000125039 -8.61468e-05 0.0001398)
(9.0373e-05 -6.10673e-05 0.000104661)
(4.43703e-05 -2.5632e-05 6.58467e-05)
(3.00063e-05 -6.77075e-07 5.03307e-05)
(4.01063e-05 1.49729e-05 5.29076e-05)
(3.54565e-05 1.59185e-05 5.19746e-05)
(2.5274e-05 7.33618e-06 3.98602e-05)
(0.000246676 2.4448e-05 0.000270407)
(0.000295475 1.24948e-05 0.000293571)
(0.000473246 7.9749e-05 0.000765364)
(0.000444423 0.000102814 0.000691927)
(0.000311473 2.04252e-06 0.000244266)
(0.000290602 1.95915e-05 0.000285022)
(0.000346501 5.05255e-05 0.000171857)
(0.000351776 4.43237e-05 0.000120236)
(-4.59782e-05 -5.38796e-05 -6.59532e-05)
(-4.12854e-05 -7.37556e-05 -6.01707e-05)
(-0.000110412 2.81115e-05 0.000166075)
(-0.000138872 3.30316e-05 0.000156832)
(-0.000115582 3.02961e-05 5.39149e-05)
(-0.000137932 2.84618e-05 4.95051e-05)
(-0.000109154 2.52602e-05 3.55372e-05)
(-0.000128281 2.76825e-05 2.74981e-05)
(0.000186962 -2.11347e-05 -9.37153e-05)
(0.000185035 -2.2953e-05 -8.40137e-05)
(-6.63269e-05 2.35091e-05 0.00013198)
(-1.5184e-05 6.40672e-06 0.000132423)
(-0.00019924 6.37675e-05 0.00011024)
(-0.000233542 7.93621e-05 0.000112708)
(-5.11682e-05 -1.33121e-05 0.000155473)
(-4.57622e-05 -1.51704e-05 0.000144291)
(-5.352e-05 4.08423e-05 6.04951e-06)
(-4.81407e-05 4.32898e-05 6.42399e-06)
(0.000379241 6.01718e-05 0.000231959)
(0.000402835 5.55632e-05 0.000275678)
(0.000653799 0.000157411 0.000293784)
(0.00076846 0.000206806 0.000258581)
(0.000605161 7.40414e-05 0.000296757)
(0.000577979 6.42845e-05 0.000326323)
(5.08612e-05 -5.54778e-06 -0.000107397)
(5.17925e-05 -5.05167e-06 -9.4907e-05)
(4.32833e-05 2.85703e-07 -0.000103265)
(3.83519e-05 -2.98608e-06 -7.66347e-05)
(2.82238e-05 6.97578e-07 -8.18378e-05)
(2.75474e-05 -1.73794e-06 -5.94941e-05)
(1.82722e-05 -7.66154e-07 -4.65382e-05)
(1.13069e-05 -5.96791e-08 -3.57591e-05)
(1.0393e-05 -1.12353e-06 -2.72387e-05)
(4.94623e-06 1.99309e-07 -2.87143e-05)
(3.90395e-06 -6.79314e-07 -2.25828e-05)
(-2.91996e-07 4.89502e-07 -2.28795e-05)
(0.000644195 9.10899e-05 0.000263988)
(0.000639969 0.000104568 0.000196439)
(-0.000123253 4.6008e-05 0.00015079)
(7.80509e-05 3.21977e-05 0.000229953)
(-0.000126763 4.50197e-05 0.000153059)
(-0.000146718 -1.14643e-05 -0.000142198)
(-0.000145598 -1.54175e-05 -0.000134175)
(2.27602e-05 4.38637e-05 0.000339873)
(-1.4029e-05 -1.12628e-05 0.000255881)
(6.4856e-06 -2.04219e-07 1.00318e-07)
(5.22923e-06 3.43751e-08 -6.54978e-07)
(3.57687e-06 -1.38037e-07 -1.25708e-06)
(1.83558e-06 -3.55772e-07 -2.28531e-06)
(6.39425e-06 -8.21561e-08 1.98535e-08)
(-1.16085e-05 -3.47587e-06 -1.05703e-05)
(-1.32003e-05 -2.55136e-06 -1.17367e-05)
(-3.88628e-06 5.71682e-07 -1.84642e-05)
(-1.76243e-06 -3.45128e-07 -1.98618e-05)
(-9.7488e-06 7.12263e-07 -8.69737e-06)
(-9.61336e-06 7.16932e-07 -8.44668e-06)
(-8.63085e-06 6.17975e-07 -7.7856e-06)
(-8.13352e-06 8.27901e-07 -7.12016e-06)
(-9.26986e-06 4.35929e-07 -8.02314e-06)
(3.40744e-05 -1.89292e-06 -9.07051e-06)
(3.59781e-05 -2.7495e-06 -9.93756e-06)
(-1.34154e-05 1.73258e-05 2.08267e-06)
(-1.30097e-05 1.19577e-05 1.33503e-06)
(-3.02929e-06 9.27151e-06 1.43631e-07)
(1.36712e-05 1.5603e-06 9.31179e-06)
(1.20277e-05 1.03896e-06 8.70563e-06)
(3.98976e-06 -1.63977e-06 2.65102e-06)
(4.46015e-07 -3.48383e-08 -3.22873e-06)
(-1.22032e-06 -2.81566e-07 -4.20938e-06)
(-2.47219e-06 -3.78265e-08 -5.10871e-06)
(2.68567e-06 -1.61347e-06 1.87067e-06)
(-5.69569e-06 -9.52245e-07 -4.16153e-06)
(-5.85905e-06 -8.70829e-07 -4.47456e-06)
(-1.02724e-05 -8.57994e-07 -9.35031e-06)
(-3.85256e-06 -2.06255e-07 -5.89935e-06)
(-4.93971e-06 3.18296e-08 -6.66084e-06)
(-6.08315e-06 -8.42339e-08 -7.3149e-06)
(-7.67284e-06 -8.03751e-08 -8.17524e-06)
(-8.82405e-06 -1.02934e-08 -8.75978e-06)
(-9.74182e-06 2.84428e-08 -9.30773e-06)
(-1.06547e-05 -5.24016e-08 -9.65016e-06)
(-1.09135e-05 2.37571e-08 -9.72838e-06)
(-1.12046e-05 3.67878e-09 -9.90184e-06)
(-1.1992e-05 -1.20879e-07 -1.07227e-05)
(-1.23214e-05 -1.27e-07 -1.11225e-05)
(-1.1659e-05 -6.77651e-07 -1.0128e-05)
(-1.29264e-05 -1.00385e-08 -1.19294e-05)
(-1.48802e-05 -1.06065e-05 -1.79508e-05)
(-1.41432e-05 -1.21353e-05 -1.60801e-05)
(-1.34438e-05 -1.8818e-07 -1.27228e-05)
(-1.43389e-05 -1.43758e-07 -1.41097e-05)
(-1.43493e-05 -3.38197e-07 -1.49858e-05)
(-1.54868e-05 -2.78479e-07 -1.62346e-05)
(-1.54744e-05 -4.48379e-07 -1.77717e-05)
(-1.61811e-05 -7.82584e-07 -1.87368e-05)
(-1.67583e-05 -8.85666e-07 -2.13227e-05)
(-1.67804e-05 -1.99255e-06 -2.10404e-05)
(-1.71497e-05 -3.79272e-06 -5.22365e-05)
(-1.54428e-05 -4.81849e-06 -5.23918e-05)
(-1.41448e-05 -5.45531e-06 -4.79778e-05)
(-0.000158112 -6.06211e-05 0.000477684)
(-0.000154738 -5.65329e-05 0.000437993)
(-7.18878e-05 -3.42991e-06 1.54207e-05)
(-6.50947e-05 -4.27452e-06 1.31723e-05)
(-4.50077e-05 3.34602e-07 1.01913e-06)
(-4.38692e-05 -9.65106e-07 1.13171e-07)
(2.77198e-06 -1.99495e-05 2.59149e-06)
(5.6447e-06 -2.06874e-05 5.5888e-06)
(-0.000132174 -7.90504e-06 0.000191786)
(-0.000118892 -3.74026e-06 0.00016802)
(-0.000132185 -1.89232e-05 0.000226266)
(-0.000116955 -2.28612e-05 0.000196608)
(-8.95332e-05 -1.84243e-05 0.000150333)
(-8.04837e-05 -2.15314e-05 0.000132108)
(-0.000192441 4.95745e-05 0.000574921)
(-0.000264863 9.3806e-05 0.000825083)
(2.38597e-05 -1.43884e-05 0.000114324)
(2.4342e-05 -1.17043e-05 9.33092e-05)
(-8.81698e-05 2.47797e-05 0.000131336)
(-5.56649e-05 5.49629e-06 0.000116318)
(-0.000176268 -4.31079e-05 0.000474699)
(-0.000175933 -2.76316e-05 0.000471262)
(-0.000173813 -3.63703e-05 0.000497526)
(-0.00018779 -1.58198e-05 0.000497733)
(-0.000449696 -3.7697e-05 -0.000125395)
(-0.000504481 -3.46194e-05 -0.000147187)
(-2.27641e-05 -7.98307e-05 9.96386e-06)
(-2.65662e-05 -7.90879e-05 1.19352e-05)
(-1.87225e-05 -4.40901e-05 6.60012e-05)
(-2.13095e-05 -5.35556e-05 8.21059e-05)
(-2.35407e-05 -5.44697e-05 6.87707e-05)
(-1.88653e-05 -4.24061e-05 5.64782e-05)
(-1.54384e-05 -8.62005e-05 8.49543e-06)
(-1.98678e-05 -9.84064e-05 6.53815e-06)
(-2.33919e-05 -8.37101e-05 8.84142e-06)
(-2.17927e-05 -8.67028e-05 9.23467e-06)
(-2.31304e-05 -0.00012862 -1.5608e-05)
(-1.99675e-05 -0.000111393 -1.41249e-05)
(-7.61675e-06 -5.6555e-05 -3.31476e-06)
(-9.8514e-06 -5.04711e-05 -4.75131e-06)
(-6.23675e-05 -3.31951e-05 9.66882e-05)
(-5.70308e-05 -3.50878e-05 9.13513e-05)
(5.29271e-06 9.97092e-06 -0.00022155)
(9.09753e-06 4.54346e-06 -0.000209702)
(-0.000141903 -4.37995e-05 -1.22867e-05)
(-0.000140585 -4.6895e-05 -1.41088e-05)
(-0.000273732 -4.54382e-05 0.00017826)
(-0.000296048 -4.89226e-05 0.000173626)
(-0.000249756 -4.05168e-05 -2.27136e-05)
(-0.000244829 -3.0524e-05 -3.0408e-05)
(-0.000197521 0.000159002 0.000267939)
(-0.000194462 0.000203688 0.000252029)
(-0.000223796 -4.06542e-05 1.16662e-05)
(-0.000124029 -4.32708e-05 -1.78834e-05)
(-0.000182507 -6.42037e-05 6.5878e-05)
(-0.000158971 -6.19956e-05 5.62462e-05)
(-0.000203319 -4.55439e-05 5.26193e-05)
(-6.91044e-05 -3.88619e-05 -7.30086e-06)
(-3.91804e-05 -2.10707e-05 6.06041e-05)
(-3.22488e-05 -1.9597e-05 5.58851e-05)
(0.0003893 -0.000130542 0.000336468)
(0.000336899 -0.00010096 0.000283599)
(0.000353773 -0.00017253 0.00021307)
(0.000321641 -0.000114568 0.000233602)
(0.000346055 -0.000144164 0.000241926)
(0.000228495 -0.000138122 0.000192423)
(0.000282817 -0.00016261 0.000210148)
(0.0002499 -0.000147903 0.000192193)
(0.000322603 -0.000118869 0.000309571)
(0.000353697 -0.000161437 0.000296569)
(0.000320793 -0.000145114 0.000246885)
(0.00028025 -0.000166477 0.000187719)
(0.000336725 -0.000185135 0.000185784)
(0.000313064 -0.000153156 0.000234141)
(0.000158043 -9.33361e-05 0.00016197)
(0.00022611 -0.000152076 0.000180583)
(0.000198003 -0.000124069 0.000173082)
(0.000159545 -0.000103206 0.000162343)
(6.10943e-05 -3.17739e-05 8.90059e-05)
(0.000194575 7.61855e-05 5.43008e-05)
(0.00023109 7.60896e-05 0.000100829)
(0.000190344 5.24943e-05 0.000117654)
(0.000196885 4.31131e-05 7.34955e-05)
(0.000235455 4.47008e-05 9.81298e-05)
(0.000231477 7.16777e-05 0.000113527)
(0.000210695 5.6853e-05 0.000100354)
(7.41716e-05 4.69627e-05 5.33803e-05)
(9.19377e-05 5.42063e-05 6.16776e-05)
(4.55006e-05 1.59066e-05 5.80628e-05)
(5.04752e-05 1.71809e-05 6.08688e-05)
(4.2701e-05 1.30519e-05 5.50136e-05)
(2.18344e-05 5.30917e-06 2.90611e-05)
(5.18853e-05 2.80896e-05 5.40702e-05)
(4.86576e-05 2.87404e-05 4.72529e-05)
(5.95215e-05 3.70345e-05 4.1433e-05)
(4.19719e-05 1.95429e-05 3.85046e-05)
(2.0941e-05 1.00339e-05 2.20077e-05)
(2.04482e-05 5.00995e-06 2.55572e-05)
(8.56577e-06 4.72142e-06 4.38635e-06)
(1.82442e-05 1.00824e-05 1.26468e-05)
(3.07202e-05 1.75395e-05 2.44332e-05)
(1.2463e-05 1.56693e-05 -2.96239e-06)
(0.000116881 6.96339e-05 3.75478e-05)
(0.000138968 7.51633e-05 5.84632e-05)
(0.000143561 6.68807e-05 7.7671e-05)
(0.000129877 6.04672e-05 5.52429e-05)
(9.20814e-05 5.36539e-05 6.00428e-05)
(0.000107149 6.11698e-05 4.45925e-05)
(0.000109596 6.1705e-05 3.24517e-05)
(0.000112538 5.32634e-05 4.68403e-05)
(0.000112222 5.95255e-05 4.71287e-05)
(0.000193907 7.82481e-05 5.34262e-05)
(0.000182871 8.42348e-05 4.88741e-05)
(0.00020935 7.4617e-05 8.44184e-05)
(0.000195474 5.78325e-05 7.2422e-05)
(0.000193145 7.76854e-05 6.89426e-05)
(0.000180125 6.21578e-05 6.78459e-05)
(6.04395e-05 4.15909e-05 2.37024e-05)
(7.40676e-05 4.1296e-05 4.31474e-05)
(5.59032e-05 3.56737e-05 3.28461e-05)
(9.81949e-05 6.03758e-05 4.02191e-05)
(4.23489e-05 2.58026e-05 2.4944e-05)
(7.15064e-05 4.98928e-05 1.83085e-05)
(0.000113103 5.77932e-05 6.57674e-05)
(0.000150507 7.60442e-05 3.84935e-05)
(7.80951e-05 5.39022e-05 -6.50911e-07)
(0.000100946 5.44737e-05 3.33934e-05)
(8.44443e-05 5.91546e-05 7.74736e-06)
(0.000162688 9.26592e-05 2.40441e-05)
(0.00016717 8.02944e-05 1.85283e-05)
(0.000159227 6.03772e-05 5.60307e-05)
(0.000169964 7.99968e-05 3.70298e-05)
(0.000305997 5.04694e-05 0.000537126)
(0.000342794 8.57552e-05 0.000621477)
(0.000306601 1.52057e-05 0.000551644)
(0.00031182 3.87783e-05 0.000557409)
(0.000260845 7.31315e-05 0.000237246)
(0.000260245 6.80002e-05 0.000274117)
(0.000205137 7.02498e-05 0.00023059)
(0.000210476 6.03789e-05 0.000260722)
(0.000298584 0.000147052 0.000321337)
(0.000281704 0.000123369 0.000321342)
(0.000350917 0.000166153 0.000342921)
(0.000297253 0.000138383 0.000240149)
(0.000308473 0.000123664 0.000296938)
(0.00022317 9.98029e-05 0.000252783)
(0.000268033 0.000108051 0.00031149)
(0.000309247 0.000102281 0.000225858)
(0.000321944 0.000136777 0.000271346)
(0.000294139 0.00011486 0.00026864)
(0.000371114 0.000163546 0.000369752)
(0.000374421 0.000173033 0.000324351)
(0.000420146 0.000190955 0.000307831)
(0.000444473 0.000228256 0.000305513)
(0.000407742 0.000175464 0.000354749)
(0.000389596 0.000183231 0.000361426)
(0.000249303 4.33306e-05 0.000282253)
(0.000321584 4.73992e-05 0.000310626)
(0.000248768 5.62625e-05 0.000290224)
(0.000223972 6.69578e-05 0.000225411)
(0.000260716 5.82936e-05 0.000278152)
(0.000264665 4.35148e-05 0.000259113)
(0.000213094 3.70017e-05 0.000207926)
(0.000241443 6.95072e-05 0.000226173)
(0.000245519 5.32784e-05 0.000223922)
(0.00025068 6.18225e-05 0.000227712)
(0.000311007 -2.24051e-05 0.000288126)
(0.000326304 -2.94098e-05 0.000300959)
(0.000334996 -7.43579e-05 0.00030973)
(0.000260257 -3.05016e-05 0.000272142)
(0.000319743 -5.86168e-05 0.000256777)
(0.000247398 -6.74292e-07 0.00024342)
(0.000343559 -6.49385e-05 0.000276047)
(0.000240826 -8.2399e-06 0.00023009)
(0.000310481 -4.41437e-05 0.000244079)
(0.000364551 -0.000109429 0.000242937)
(0.000231684 3.90392e-05 0.000245067)
(0.000234754 5.66967e-05 0.000249971)
(0.000251559 2.34338e-05 0.000236138)
(0.000252449 4.43807e-05 0.000235429)
(0.000301458 0.000107523 0.000223957)
(0.000356713 0.000136214 0.000302713)
(0.000337413 0.000118381 0.000268077)
(0.000320711 9.05581e-05 0.000226634)
(0.000377822 0.000123783 0.000242402)
(0.000436953 0.000189301 0.000304715)
(0.000427201 0.00019896 0.000315824)
(0.000420698 0.000168902 0.000330322)
(0.000413302 0.000162235 0.000234414)
(0.000362684 0.000129626 0.000313165)
(0.000371076 0.000145493 0.000302522)
(0.000501592 0.000220789 0.000392038)
(0.000468906 0.000188656 0.000293612)
(0.000285825 8.02703e-05 0.000238588)
(0.000411848 0.000126323 0.000256427)
(0.000305771 6.95919e-05 0.0002679)
(0.000403914 9.95205e-05 0.000254523)
(0.000426276 0.000154415 0.000260205)
(0.000398231 0.000124886 0.000300922)
(0.000575976 0.000229908 0.000301369)
(0.000435522 0.000148726 0.000262328)
(0.000388147 0.000114177 0.000274777)
(0.000587879 0.000213249 0.000272875)
(0.000530292 0.000263992 0.000276767)
(0.000518972 0.000198185 0.000349854)
(0.000482107 0.000195717 0.000357494)
(0.000575837 0.000229761 0.000348064)
(0.000553859 0.000209339 0.000330652)
(0.000349706 0.00019021 0.000359596)
(0.000337216 0.000169797 0.000339518)
(0.000253822 0.000113912 0.000364381)
(0.000332076 0.00014991 0.000404476)
(0.000391213 0.000169769 0.000441763)
(0.000366298 0.000164907 0.000379137)
(0.000365264 0.000199111 0.000405937)
(0.000378823 0.000192007 0.000409886)
(0.000370894 0.000179221 0.000485379)
(0.000345317 0.000107423 0.000575365)
(0.000312912 0.00010621 0.000505278)
(0.000351539 0.000154136 0.000509983)
(0.000341383 0.000139833 0.000561093)
(0.000294166 9.56787e-05 0.000428497)
(0.000394152 0.000204791 0.000447872)
(0.000409687 0.000160498 0.000539093)
(0.000361769 0.000157999 0.000524863)
(0.000364082 6.59812e-05 0.000557922)
(0.000429027 0.000196299 0.000533512)
(0.000347319 0.000140325 0.000421991)
(0.000457184 0.000253677 0.00036688)
(0.000473878 0.00023371 0.00038245)
(0.00041137 0.000185268 0.000436374)
(0.000419753 0.000250408 0.000415706)
(0.000478285 0.000255672 0.000406752)
(0.000452433 0.0001807 0.000519554)
(0.000449174 0.000193118 0.000618009)
(0.000379554 0.000136464 0.000499911)
(0.000331594 0.000102694 0.000507934)
(0.00036123 0.000145525 0.000507261)
(0.000408046 0.000159941 0.000579447)
(0.000351793 0.000149115 0.000465759)
(0.000465408 0.000266506 0.000458325)
(0.000447487 0.000161079 0.00058171)
(0.000496389 0.000240805 0.000659856)
(0.000274567 4.67082e-05 0.000471929)
(0.00027991 9.40067e-05 0.000456876)
(0.000353 0.000145877 0.000544151)
(0.000341534 9.37696e-05 0.000580876)
(0.000338296 5.44381e-05 0.000558791)
(0.000396276 0.000126716 0.000616268)
(0.000303324 2.46008e-05 0.000513161)
(0.000302596 7.26517e-05 0.000492984)
(0.000395451 0.000139279 0.000616513)
(0.000328409 5.13694e-05 0.000562464)
(0.000302574 4.63938e-05 0.000507834)
(0.000344996 2.574e-06 0.000574431)
(0.000311845 4.61986e-05 0.00052495)
(0.000319324 5.49944e-05 0.000529957)
(0.000388184 5.81899e-05 0.000632706)
(0.000307667 7.46326e-05 0.000533113)
(0.000302543 4.44473e-05 0.000505986)
(0.000384623 -2.93031e-05 0.000592301)
(0.000408305 0.000155153 0.00062939)
(0.000371396 5.18417e-05 0.000596278)
(0.000445992 8.68783e-05 0.000727888)
(0.000333934 7.88171e-05 0.000542176)
(0.000355152 0.000117459 0.000530055)
(0.000451662 0.000184356 0.000636934)
(0.000355656 9.41909e-05 0.000567398)
(0.000416898 8.98791e-05 0.00065294)
(0.00044699 6.02042e-05 0.000736416)
(0.000457943 2.89656e-05 0.000740917)
(0.000354616 6.26655e-05 0.000576997)
(0.000411076 7.49359e-05 0.000652004)
(0.000361677 3.65734e-05 0.000585043)
(0.000421071 6.63636e-05 0.000669271)
(0.000492969 0.000227101 0.000444243)
(0.000497252 0.000235296 0.000384625)
(-2.09979e-05 -4.94542e-05 0.000158927)
(0.000498403 0.000222403 0.00053034)
(0.000459306 0.000224737 0.000418233)
(0.000577208 0.000274352 0.000386722)
(0.000545131 0.000289175 0.000376687)
(0.000547987 0.000247152 0.000419383)
(-2.53738e-05 -5.02711e-05 0.000157867)
(0.000486576 0.000222534 0.000449961)
(0.000513823 0.000291743 0.000434656)
(0.000557374 0.00029255 0.000442027)
(0.000484426 0.000227051 0.000515168)
(0.000522023 0.000242682 0.00065943)
(-2.29163e-05 -4.92394e-05 0.000155671)
(0.000424491 0.000183855 0.00048765)
(0.000361528 0.000143373 0.000535357)
(0.000402743 0.000192384 0.000502628)
(0.000441423 0.000134961 0.000609132)
(0.000389087 0.00019396 0.000481367)
(-2.54036e-05 -3.93212e-05 0.00015844)
(0.000507159 0.000297698 0.000454123)
(0.000491481 0.000197711 0.000583325)
(0.000542413 0.000286689 0.000656802)
(0.000567864 0.000266617 0.000453231)
(0.000629614 0.00027676 0.000361192)
(0.000678553 0.000298161 0.000360837)
(0.000545287 0.000259285 0.000511191)
(0.000539868 0.000262463 0.000413606)
(0.000577851 0.000312 0.000350293)
(0.00058347 0.000261182 0.000372236)
(0.000544095 0.00024466 0.000429334)
(0.000591485 0.000307094 0.000482562)
(0.000637057 0.000331243 0.000445348)
(0.000534691 0.000258256 0.000497287)
(0.00054457 0.000251085 0.00061258)
(0.000483023 0.000250967 0.000461416)
(0.000461059 0.000217324 0.000638063)
(0.000415379 0.000225325 0.000476756)
(0.000454421 0.000180768 0.000601387)
(0.000562943 0.000308607 0.000566052)
(0.000506619 0.000297948 0.00043405)
(0.000500419 0.000250832 0.000558464)
(0.000390145 0.000197824 0.000530087)
(0.000436052 0.000266612 0.000462703)
(0.000527571 0.000226659 0.000646797)
(0.000503092 0.00018978 0.0007533)
(0.000470992 0.0001172 0.000750007)
(0.000483024 5.25264e-05 0.000780088)
(0.000368687 0.000121366 0.000576736)
(0.000371278 0.000168558 0.000514781)
(0.000475912 0.000183554 0.00065526)
(0.000461308 0.000178099 0.000710562)
(0.000451592 0.000117201 0.000692808)
(0.000447143 0.000102264 0.000711316)
(0.000457705 3.16898e-05 0.000727614)
(0.000462595 9.00436e-05 0.000722371)
(0.00050547 0.000231028 0.000676207)
(-3.14411e-05 -4.56263e-05 0.000166041)
(0.000359322 0.000108318 0.000574721)
(0.000339965 0.000166753 0.000501061)
(0.000489992 0.000213603 0.000703524)
(0.000472296 0.000264482 0.000649083)
(0.000412733 0.000159462 0.000610436)
(0.00048693 0.000172014 0.00074695)
(0.000377997 0.000127352 0.000602771)
(0.000483411 0.000129352 0.000741222)
(0.000383151 0.000117442 0.0006259)
(0.000376777 5.49982e-05 0.000596678)
(0.000478177 2.90462e-05 0.000725892)
(0.00048065 0.0001389 0.000764189)
(0.00048614 0.000102981 0.000784499)
(0.00032555 -4.16907e-05 0.000476654)
(0.00025418 1.37216e-05 0.000389868)
(0.000274498 8.46039e-06 0.000392185)
(0.000262364 1.00335e-05 0.000401291)
(0.000197104 3.6487e-05 0.000352573)
(0.000244822 2.33268e-05 0.000378579)
(0.000301249 3.15796e-06 0.000390245)
(0.000242396 3.70831e-05 0.000375943)
(0.00031947 4.4128e-05 0.000570912)
(0.000315713 5.56762e-05 0.000534185)
(-2.31122e-05 -4.26328e-05 0.000152245)
(-2.68337e-05 -4.54029e-05 0.000159011)
(-2.47779e-05 -4.15872e-05 0.000147394)
(-2.62742e-05 -3.84913e-05 0.000148051)
(0.000344296 2.60618e-05 0.000535007)
(0.000308312 5.87189e-05 0.000479166)
(0.00035667 1.16e-05 0.000475298)
(0.000308856 2.937e-05 0.000416932)
(0.000351798 -1.01597e-05 0.000453881)
(0.000336137 1.08473e-05 0.000419778)
(-2.97013e-05 -3.84549e-05 0.000152971)
(0.000347373 5.28922e-06 0.000450444)
(-3.50648e-05 -3.1966e-05 0.000162803)
(-3.01152e-05 -3.69311e-05 0.000154382)
(0.000270912 3.09342e-05 0.000206932)
(0.000252052 3.0708e-05 0.000210951)
(0.000258185 1.54389e-05 0.00021863)
(-3.34714e-05 -3.77935e-05 0.000152051)
(-2.66243e-05 -4.05076e-05 0.000162084)
(-2.59794e-05 -4.32631e-05 0.000159418)
(-3.25091e-05 -3.67055e-05 0.000172697)
(-3.39927e-05 -4.54027e-05 0.000180109)
(-2.97329e-05 -3.32883e-05 0.000163786)
(-2.86617e-05 -2.93188e-05 0.000157128)
(-3.47778e-05 -3.75625e-05 0.00015716)
(0.000255984 5.23323e-05 0.00010705)
(0.000287712 5.07113e-05 0.000140872)
(0.000242439 3.61817e-05 0.000120757)
(0.000255015 5.57864e-05 0.000108996)
(0.000271149 4.85599e-05 0.000140313)
(0.000289071 2.87863e-05 0.000166583)
(0.000274379 3.09984e-05 0.000200092)
(0.000324499 1.29333e-05 0.000231486)
(0.000311934 2.67989e-05 0.000199463)
(0.000274319 3.00799e-05 0.00021437)
(0.000299009 4.4839e-05 0.00015925)
(0.000306872 2.76074e-05 0.000177472)
(0.000297947 1.08483e-05 0.000295361)
(0.000284122 1.8812e-05 0.000314318)
(0.000318699 4.99305e-06 0.000355693)
(0.000269209 1.43314e-05 0.000327313)
(0.000290606 5.09415e-06 0.000342311)
(0.000248776 2.32523e-05 0.000328078)
(0.000346643 2.45279e-05 0.000359381)
(0.000354005 5.06972e-06 0.000317771)
(0.000326292 1.33738e-05 0.000289719)
(0.000284828 1.48237e-05 0.000282617)
(0.000333642 -6.39296e-06 0.000394334)
(0.000328558 2.33003e-06 0.000341437)
(0.000349016 2.74728e-05 0.000426506)
(0.000341647 2.40828e-05 0.000280289)
(0.000372605 -5.39902e-06 0.000340164)
(0.000355507 -5.6758e-06 0.000280072)
(0.000372091 4.65642e-06 0.000332788)
(0.00037471 3.46754e-07 0.000301068)
(0.000360737 5.18274e-06 0.000380188)
(0.000376704 -1.76598e-05 0.000423281)
(0.000388212 -3.02798e-05 0.000400429)
(0.000392587 1.22725e-05 0.000466108)
(0.000440732 -1.21367e-05 0.000437564)
(0.000433624 -3.40807e-05 0.000381321)
(0.000411853 -2.85618e-05 0.000301839)
(0.000415263 -5.85824e-06 0.000372329)
(0.000358975 6.15478e-06 0.000254041)
(0.000340187 3.69801e-06 0.000203632)
(0.000365027 1.09501e-05 0.000245615)
(0.000254013 6.34226e-05 8.21078e-05)
(0.000265039 5.65313e-05 0.000118983)
(0.000255234 7.54482e-05 6.5977e-05)
(0.000289079 7.25564e-05 0.000103238)
(0.000283298 4.35814e-05 0.000131366)
(0.00032365 2.73964e-05 0.000165506)
(0.000306811 6.17512e-05 0.000150289)
(0.000231644 8.37497e-05 4.19358e-05)
(0.000325266 9.72583e-05 8.26523e-05)
(0.000173562 8.06223e-05 7.53689e-05)
(0.000183237 7.7718e-05 4.4395e-05)
(0.000307264 0.000114996 5.42009e-05)
(0.000292228 8.41465e-05 0.000117146)
(0.000257184 4.7625e-05 4.23942e-05)
(0.000300253 6.4139e-05 0.000110277)
(0.000364678 5.10792e-05 9.36881e-05)
(0.00029483 9.37506e-05 7.43798e-05)
(0.000280815 7.00846e-05 7.43772e-05)
(0.000366216 7.47261e-05 9.61768e-05)
(0.000448695 -2.13711e-05 0.000317717)
(0.000495134 -4.95223e-05 0.000430531)
(0.000447935 -3.80643e-05 0.000360343)
(0.000488113 -3.1011e-05 0.000426303)
(0.000364125 2.14784e-05 0.000217304)
(0.000425002 -2.38934e-05 0.000283744)
(0.000383696 1.5701e-06 0.000242025)
(0.000390518 -2.38087e-06 0.000268708)
(0.000367817 2.77637e-05 0.000192077)
(0.000391648 1.12113e-05 0.000255001)
(0.000468764 -3.94271e-05 0.000256789)
(0.000524132 -2.9433e-05 0.000342515)
(0.000533938 -7.76568e-05 0.000383857)
(0.000494554 -4.26951e-05 0.000308991)
(0.000447858 -2.03335e-05 0.000342745)
(0.000390294 3.67538e-05 0.000125761)
(0.000402144 2.19657e-05 0.000153896)
(0.000445583 -1.43054e-05 0.000225634)
(0.000413301 1.7026e-05 0.000159744)
(0.000403463 9.64615e-06 0.000183312)
(0.000375548 5.62596e-05 0.000143487)
(0.000406679 2.6008e-05 0.000164769)
(0.000509661 -1.98775e-05 0.000270244)
(0.00051801 -5.39301e-05 0.000295301)
(0.000579326 -7.29624e-05 0.000283171)
(0.000514481 -2.70561e-05 0.000251341)
(0.000474913 -5.08195e-06 0.00023035)
(0.0004965 -1.97849e-05 0.00023145)
(0.000286236 4.51354e-05 0.000487584)
(0.000295373 2.35296e-05 0.000484921)
(0.000334823 -4.63723e-06 0.000528998)
(0.000333168 2.3199e-06 0.000516236)
(0.000283561 5.11863e-05 0.000463855)
(0.000318563 1.15086e-05 0.000485583)
(0.000407614 -2.27482e-05 0.000609433)
(0.000299775 1.96398e-05 0.000487323)
(0.000322821 -1.55185e-06 0.000483834)
(0.000367676 2.74068e-05 0.000567932)
(0.000363342 -1.51094e-05 0.00050082)
(0.000333016 -1.18641e-06 0.00045493)
(0.000360038 1.7349e-05 0.000517631)
(0.000434726 -1.6336e-05 0.000617855)
(0.000424311 1.80403e-05 0.000703478)
(0.000329924 3.32739e-05 0.000522029)
(0.000374282 5.61126e-05 0.000611114)
(0.000353641 5.31504e-05 0.000599121)
(0.000373591 6.30352e-06 0.000573864)
(0.000488423 -2.85437e-05 0.000700228)
(0.000459086 -8.39289e-05 0.000625224)
(0.000385432 6.90264e-05 0.000636383)
(0.000407345 -1.315e-05 0.000601865)
(0.000366323 1.06322e-06 0.000510175)
(0.00040466 1.70453e-05 0.000584996)
(0.000406822 -2.72958e-05 0.000516619)
(0.000357795 -1.10391e-05 0.000443661)
(0.000393751 4.88952e-06 0.000519646)
(-3.62261e-05 -3.48267e-05 0.000158332)
(0.000463307 -7.04948e-05 0.000581999)
(0.000422048 -2.93862e-05 0.000496543)
(0.000460521 1.16012e-05 0.000597938)
(0.000375369 -9.31568e-07 0.000553223)
(0.000431034 -3.43962e-05 0.000558194)
(0.000486903 -2.32887e-05 0.000647989)
(0.000454543 -5.47969e-05 0.000510383)
(0.000425573 -3.66292e-05 0.000431306)
(0.000420854 7.44774e-06 0.000519463)
(0.00052036 -3.42346e-06 0.000808492)
(0.000378271 2.83653e-05 0.000594155)
(-3.62364e-05 -3.01083e-05 0.00014649)
(0.000403127 -1.75122e-06 0.000587485)
(0.000462815 3.02243e-05 0.000700219)
(0.000512359 -2.53952e-05 0.000749241)
(0.000534996 -7.35091e-05 0.000710526)
(0.000394564 -1.27444e-05 0.000533933)
(-4.11987e-05 -2.63681e-05 0.000157613)
(0.000478356 -0.000111483 0.000511359)
(0.000504943 -9.63484e-06 0.00066363)
(0.000496498 -2.96877e-05 0.000721064)
(0.000438024 -2.41307e-05 0.000608636)
(0.000491585 1.71185e-05 0.000705421)
(0.000559299 -4.77948e-05 0.000727356)
(0.000487968 -3.11354e-06 0.000628683)
(0.000579687 -9.54622e-05 0.000724214)
(0.000501263 -7.66191e-05 0.000595376)
(0.000535486 -1.53527e-05 0.000718989)
(0.000382836 6.2057e-05 0.000621904)
(0.000394115 2.37299e-06 0.000593099)
(0.00047748 1.08093e-05 0.000709892)
(0.000496455 2.32242e-05 0.000770988)
(0.000479419 -4.91987e-05 0.00070898)
(0.000456543 9.29188e-05 0.000731564)
(0.000460589 1.31255e-05 0.000726878)
(0.000456353 0.000144338 0.000755176)
(0.000417618 6.15989e-05 0.000678664)
(0.00042184 1.94135e-05 0.000643776)
(0.00050466 1.40175e-06 0.000750656)
(0.000432654 -2.64456e-06 0.000661962)
(0.000477961 -4.1776e-05 0.000653785)
(0.000546824 -3.48721e-05 0.000756659)
(0.000595882 -6.02096e-05 0.000798322)
(0.000456319 -3.61439e-05 0.000643744)
(0.000530169 -9.14561e-05 0.000624705)
(0.000574405 9.14141e-06 0.000786406)
(0.000487078 -4.67234e-05 0.000478185)
(0.000431052 -7.88689e-05 0.000459106)
(0.000497873 -8.38295e-05 0.000478657)
(0.000490487 -7.15653e-06 0.000588611)
(0.000557534 -5.78735e-05 0.000636993)
(0.000517479 -4.0498e-05 0.000525241)
(0.00052629 -8.59046e-05 0.00047478)
(0.0005255 -7.39531e-05 0.000381799)
(0.000520153 -3.77751e-05 0.000468607)
(0.000596663 -9.58414e-05 0.00054951)
(0.000559779 -0.000109231 0.000438393)
(0.000582989 -6.98127e-05 0.000543577)
(0.000591127 -0.00010471 0.000634943)
(-4.37973e-05 -2.36486e-05 0.000155841)
(0.0005255 -9.39673e-05 0.000529743)
(0.000558015 -5.22643e-05 0.000638369)
(0.000628402 -0.000140286 0.000714027)
(0.000569775 -0.000112292 0.000571115)
(0.00058837 -4.21568e-05 0.000710781)
(-4.67869e-05 -2.00338e-05 0.00015657)
(0.00063395 -0.000144009 0.000603298)
(0.000623779 -0.000157373 0.000468449)
(-3.60387e-05 -3.80173e-05 0.000179943)
(0.000602651 -5.51511e-05 0.000636877)
(0.000573317 -8.29936e-05 0.000435352)
(-4.00278e-05 -3.15769e-05 0.000182912)
(0.000560524 -7.98697e-05 0.000370306)
(0.000559503 -5.19615e-05 0.0004333)
(-3.43025e-05 -3.86091e-05 0.000165389)
(0.000647411 -6.81863e-05 0.000394551)
(-3.74465e-05 -2.18001e-05 0.000166969)
(-4.0674e-05 -3.37851e-05 0.000179964)
(0.000604 -0.000136127 0.000425908)
(0.0006217 -0.00012585 0.000384973)
(-4.17349e-05 -3.30551e-05 0.000178698)
(0.000604837 -5.42465e-05 0.000534437)
(0.000344306 -0.000175804 0.000239905)
(-4.50267e-05 -2.67104e-05 0.000173622)
(0.000351684 -0.000184761 0.000195106)
(0.000321356 -0.000167819 0.000204477)
(-4.41313e-05 -2.67573e-05 0.000178066)
(0.000275746 -0.000161377 0.000209183)
(0.000302021 -0.000182644 0.000189577)
(-4.78103e-05 -2.04614e-05 0.000186478)
(0.000255809 -0.000156603 0.000179083)
(0.000319645 -0.000164646 0.00027159)
(-3.69419e-05 -2.52259e-05 0.000160746)
(-3.36527e-05 -2.23462e-05 0.000148977)
(0.000316509 -0.000173007 0.000196503)
(-3.9133e-05 -2.92042e-05 0.00015152)
(-4.08348e-05 -2.54699e-05 0.000164389)
(0.000206212 -0.000132421 0.000174185)
(-3.93316e-05 -2.27068e-05 0.000149804)
(-4.30562e-05 -2.13618e-05 0.000162535)
(0.000243908 -0.000164974 0.0001732)
(-4.15663e-05 -2.03788e-05 0.000147627)
(0.00020137 -0.000139911 0.00015285)
(0.000120929 -9.12538e-05 0.0001069)
(0.000192564 -0.000143134 0.000154902)
(0.000155965 -0.000109808 0.000139856)
(0.000136766 -9.60248e-05 0.000131072)
(0.000186884 -0.000124119 0.000157421)
(0.000153456 -0.000122277 0.000125853)
(0.000244084 -0.000135858 0.000233028)
(0.00025027 -0.000146927 0.000189389)
(0.000293525 -0.000210071 0.000166002)
(0.000364417 -0.000230859 0.00017825)
(0.000314437 -0.000186832 0.000210152)
(0.000185982 -0.000137084 0.00013163)
(0.000296117 -0.000219167 0.000165947)
(0.000254494 -0.000172703 0.000191152)
(0.000231523 -0.000178813 0.000188589)
(0.000280638 -0.000168743 0.00025362)