/*--------------------------------*- C++ -*----------------------------------*\
  =========                 |
  \\      /  F ield         | OpenFOAM: The Open Source CFD Toolbox
   \\    /   O peration     | Website:  https://openfoam.org
    \\  /    A nd           | Version:  7
     \\/     M anipulation  |
\*---------------------------------------------------------------------------*/
FoamFile
{
    version     2.0;
    format      ascii;
    class       volScalarField;
    location    "6.75";
    object      p;
}
// * * * * * * * * * * * * * * * * * * * * * * * * * * * * * * * * * * * * * //

dimensions      [0 2 -2 0 0 0 0];

internalField   nonuniform List<scalar> 
382612
(
0.00208459
0.0018538
0.00200304
0.00200579
0.00175118
0.00221726
0.00212783
0.00201629
0.0018431
0.00169458
0.00188224
0.00187016
0.00182279
0.0018508
0.00195575
0.00208089
0.00186289
0.00200274
0.0020278
0.00204845
0.00206821
0.00209383
0.0021194
0.00213326
0.00211389
0.00208991
0.00206665
0.00248362
0.00252878
0.00256685
0.00259845
0.00238873
0.00238195
0.0023728
0.00235652
0.00226874
0.00197116
0.00205306
0.00211583
0.0021476
0.00217381
0.00219709
0.00211541
0.00209909
0.00207754
0.00205043
0.00196658
0.00198115
0.00200185
0.00201894
0.00217602
0.00215933
0.00213941
0.00211795
0.00208947
0.00193591
0.0019839
0.0020623
0.0021261
0.00201903
0.00209282
0.00197677
0.00199544
0.00262085
0.00203755
0.00187869
0.00215027
0.00235217
0.00245351
0.00258788
0.00260581
0.00260835
0.00260964
0.00275645
0.00274671
0.00273375
0.00270873
0.00260187
0.00239531
0.00250024
0.00254117
0.00256867
0.00258802
0.00292321
0.00293028
0.00293827
0.00292141
0.00276342
0.0021375
0.0022671
0.00229907
0.00231463
0.00232494
0.00250047
0.00251465
0.00253192
0.002532
0.00245654
0.00202484
0.00209037
0.00211451
0.00212866
0.00214383
0.00216106
0.00203705
0.00202947
0.00202074
0.00201727
0.00182838
0.00185773
0.00187952
0.00189536
0.002145
0.00212545
0.00210368
0.00208199
0.00205174
0.00171663
0.00182877
0.00186136
0.00187688
0.00188633
0.00204996
0.00203054
0.00200951
0.00198584
0.0019169
0.00166404
0.00184429
0.00197961
0.00200343
0.00201279
0.00201608
0.00222551
0.00223408
0.00224602
0.00225805
0.00236914
0.00234724
0.00221965
0.00218889
0.00216984
0.00215619
0.00189736
0.0018872
0.00187517
0.00186814
0.00199063
0.00200484
0.00201675
0.00202457
0.00202016
0.00201575
0.00200813
0.00200249
0.00204414
0.00196229
0.00189356
0.00189363
0.00190063
0.00190552
0.00183601
0.00199005
0.00202633
0.00171323
0.00186763
0.00181591
0.00210368
0.00231358
0.00177205
0.00179579
0.00212883
0.00174217
0.00181585
0.00179541
0.00173009
0.00172731
0.00173619
0.00174175
0.00225317
0.00226398
0.00228174
0.00230423
0.00230007
0.001955
0.00191711
0.00190749
0.00190731
0.00190895
0.00223836
0.00225352
0.00227788
0.00230776
0.00233534
0.00200495
0.00211895
0.00212786
0.00212677
0.00212198
0.0021189
0.00193194
0.00193218
0.00193466
0.0019467
0.00163851
0.001642
0.00164937
0.00165239
0.00198493
0.00198515
0.00198481
0.00198702
0.00202376
0.0016627
0.00165277
0.00202537
0.00192379
0.00160246
0.00183473
0.00198127
0.00168949
0.00197126
0.00193967
0.00166138
0.0015734
0.00189221
0.00190968
0.00175791
0.00157507
0.00180787
0.00194938
0.00200612
0.00198978
0.00197427
0.00184034
0.00168174
0.00201225
0.00193332
0.0019962
0.00203379
0.0019555
0.00199792
0.00212027
0.00210173
0.00190388
0.00194248
0.00198052
0.0019915
0.00200529
0.00201992
0.00217595
0.00217331
0.00216451
0.00212384
0.00239318
0.00236905
0.00235053
0.00233345
0.00276083
0.00275047
0.00274069
0.00271644
0.00257939
0.00249317
0.00242798
0.00243549
0.00244785
0.00245152
0.00245761
0.00211828
0.00212021
0.00211522
0.00210124
0.00210962
0.00257821
0.00254223
0.0025456
0.00255527
0.0025637
0.0023928
0.00237897
0.0023568
0.00233938
0.00236264
0.00258505
0.00254006
0.00253963
0.00255364
0.00256521
0.00277128
0.00277159
0.0027712
0.00276147
0.00268825
0.00260188
0.00272886
0.00275927
0.00277243
0.0027801
0.0032049
0.00321099
0.00321878
0.00319976
0.00302132
0.00224305
0.0022716
0.00228752
0.00231008
0.00232856
0.00239939
0.00239133
0.00238045
0.00235856
0.00225614
0.00206787
0.00214878
0.00218243
0.00220695
0.00222331
0.00256429
0.00257894
0.00260264
0.00261271
0.00252356
0.00185194
0.00185281
0.00185935
0.0018767
0.00189312
0.00197924
0.00198208
0.00199476
0.0020093
0.00201914
0.00194922
0.00193389
0.00191463
0.00190325
0.00188939
0.00244457
0.00245245
0.00243205
0.0024057
0.00238694
0.00186655
0.00185706
0.00184577
0.00184679
0.00188432
0.00237913
0.00233025
0.00229886
0.00227342
0.00225723
0.00173848
0.00173416
0.00172965
0.00174377
0.00184109
0.00203472
0.00197169
0.00196313
0.00196797
0.00197337
0.0022153
0.00222853
0.0022486
0.00227575
0.00232653
0.00193926
0.00184704
0.00183501
0.00184165
0.00184794
0.00218428
0.00219537
0.00221145
0.00222942
0.00223859
0.00200537
0.00204391
0.00204623
0.00204713
0.00204398
0.00204098
0.00195918
0.00195854
0.00195837
0.00196401
0.00179922
0.00179671
0.00179838
0.00179924
0.00198061
0.00198393
0.00198684
0.00198904
0.00199764
0.00181837
0.00207255
0.00201716
0.00200456
0.00200096
0.00199839
0.00194597
0.00211432
0.00219813
0.00214692
0.00213078
0.00212222
0.00211639
0.00198085
0.00198078
0.00198025
0.00197966
0.00203635
0.00203379
0.00202979
0.0020267
0.00205095
0.00205248
0.00205484
0.00205654
0.00203277
0.00203441
0.00203819
0.00204081
0.00221075
0.00221536
0.00222032
0.00222474
0.00224796
0.00204871
0.00205999
0.00208999
0.00215117
0.00198994
0.00205144
0.00201401
0.00189007
0.00177511
0.00197401
0.00197679
0.00180496
0.00214942
0.00211005
0.00208005
0.00211552
0.00198831
0.00203946
0.0020939
0.00217439
0.00216873
0.00227152
0.00226565
0.00222862
0.00222199
0.00222293
0.00222476
0.00230146
0.00229865
0.00229472
0.00229083
0.00229295
0.002353
0.00235758
0.00235827
0.00235977
0.00236223
0.00229224
0.0022932
0.00229396
0.00229253
0.00229335
0.00212291
0.00207037
0.00207638
0.00207772
0.0020765
0.00207564
0.0021327
0.0021267
0.002119
0.0021144
0.00206373
0.0020675
0.00207204
0.00207537
0.00204993
0.00205133
0.00205322
0.00205342
0.00205149
0.00206369
0.00225567
0.00223914
0.00223879
0.00223743
0.00223512
0.00225199
0.00233075
0.00228111
0.0022646
0.00226904
0.00227688
0.00228262
0.00249041
0.00249003
0.00248781
0.00247699
0.0024416
0.00247249
0.00249478
0.00250331
0.00250878
0.00251275
0.00242119
0.00241588
0.00240902
0.00240223
0.00240144
0.0023299
0.00235511
0.00236708
0.00237214
0.00237525
0.00218377
0.00217401
0.00216231
0.00215637
0.00211432
0.0021176
0.00211754
0.00211768
0.00216076
0.00215933
0.00215767
0.00215384
0.00221124
0.00221301
0.00221864
0.00222347
0.00245415
0.00244331
0.00242909
0.00241094
0.0023797
0.00221521
0.0021377
0.00212569
0.00224049
0.00217733
0.00211812
0.00208177
0.00213849
0.0019954
0.00203018
0.00208298
0.00212041
0.00218134
0.00209449
0.00210219
0.00220605
0.00216105
0.0021002
0.00228356
0.00234716
0.00243851
0.00247114
0.00242375
0.00242686
0.0024341
0.00244268
0.00244883
0.00258344
0.00257671
0.00256659
0.00255154
0.00252266
0.00255133
0.00258138
0.00259331
0.00260027
0.00260458
0.00251393
0.00251009
0.0025038
0.00249305
0.00248022
0.00248944
0.0025025
0.0025099
0.00251358
0.00251576
0.0024468
0.00243613
0.00242208
0.0024058
0.00237261
0.00223484
0.00225764
0.00225754
0.00225505
0.00225313
0.00233001
0.00232058
0.00230931
0.00229368
0.00224513
0.00216293
0.00210853
0.00211885
0.00212366
0.00212417
0.00212388
0.00214921
0.00214511
0.00214047
0.00214257
0.00218893
0.00219398
0.00220082
0.00220613
0.00213708
0.00213609
0.00213538
0.00213404
0.00212519
0.00218449
0.00217002
0.00210627
0.00210865
0.00215749
0.00211215
0.00207891
0.00209376
0.00213889
0.00224017
0.00213724
0.00206752
0.00209768
0.00218093
0.00208969
0.0023093
0.00263883
0.00222914
0.00211333
0.00237099
0.00250349
0.00257781
0.00258648
0.00255988
0.00253487
0.00244952
0.00248136
0.0024959
0.00250279
0.00250671
0.00258469
0.0025799
0.00257402
0.00256538
0.00253759
0.00257222
0.00260538
0.0026156
0.00262194
0.00262674
0.00257899
0.00257066
0.00255962
0.00254766
0.00253259
0.00256907
0.00260257
0.00261508
0.00262243
0.00262749
0.00258996
0.00258661
0.00258001
0.00256558
0.00252632
0.00241012
0.0024076
0.00241319
0.00242127
0.00242783
0.00248136
0.00247899
0.00247576
0.00246823
0.00244216
0.00232152
0.00232293
0.00232885
0.00233473
0.00233864
0.00220579
0.0022016
0.00219639
0.00219147
0.00218441
0.00211792
0.00209274
0.00210162
0.00210502
0.00210496
0.0021032
0.00212741
0.00212369
0.00211867
0.0021152
0.00210556
0.00210735
0.00211081
0.00211466
0.00207651
0.00207659
0.00207457
0.00206939
0.00206605
0.00211093
0.00220376
0.0021993
0.00220386
0.00220957
0.00221434
0.00216046
0.00215601
0.00215039
0.00214612
0.00214758
0.00206711
0.00204971
0.00206136
0.00206512
0.00206679
0.00206883
0.00209244
0.0020867
0.00207978
0.00207421
0.00209301
0.00209398
0.00209555
0.00209693
0.00208746
0.00208509
0.0020846
0.00208369
0.00207499
0.0020907
0.00208695
0.00205518
0.00207452
0.00207864
0.00202456
0.00202319
0.00210338
0.00213882
0.00216704
0.00209609
0.00207384
0.00205942
0.00209765
0.00207487
0.00198669
0.00189832
0.00214429
0.00208832
0.00215856
0.00222512
0.00234368
0.00218811
0.00218286
0.00233922
0.00207636
0.00205249
0.00212482
0.00225239
0.00217567
0.00210434
0.00209789
0.00221929
0.0022646
0.00213083
0.00208407
0.00207595
0.002324
0.00231197
0.00236719
0.00237109
0.00238318
0.00236742
0.00236392
0.00236417
0.00236525
0.00236379
0.00236262
0.00236237
0.00236492
0.00236489
0.00245167
0.00246851
0.00247227
0.00247535
0.00247807
0.00239734
0.0023954
0.00239116
0.00238085
0.00235866
0.00230569
0.00229889
0.00229762
0.00229971
0.00230262
0.00241411
0.00240961
0.00240448
0.00239781
0.00237675
0.00241705
0.00244382
0.00245358
0.00246104
0.00246701
0.0025563
0.00255159
0.00254403
0.00252759
0.00248634
0.00242019
0.00244261
0.00245659
0.0024651
0.00247027
0.00255021
0.00254438
0.00253755
0.0025302
0.00250994
0.00250034
0.0025146
0.00252074
0.00252525
0.00252856
0.00244288
0.00244025
0.00243784
0.00243522
0.00242094
0.002367
0.00236047
0.00235905
0.00236089
0.00236281
0.00226898
0.00226357
0.00225699
0.00225419
0.00226613
0.00228176
0.00229969
0.00230369
0.00230396
0.00230434
0.00218427
0.00218639
0.00218796
0.00218744
0.00217775
0.00217785
0.00219414
0.00219461
0.00219123
0.00218783
0.00205391
0.00204954
0.0020448
0.002044
0.00207023
0.00207562
0.00207872
0.00208149
0.00206969
0.00206584
0.00206106
0.00205393
0.00204545
0.00205084
0.00204888
0.00205357
0.00205879
0.00206266
0.0020867
0.00208744
0.00208775
0.00208803
0.00208811
0.00206939
0.00206711
0.00206673
0.00206689
0.00206684
0.00202412
0.00202015
0.00201486
0.00201107
0.00202431
0.00202892
0.00203277
0.00203663
0.00210342
0.00209969
0.00209778
0.00209561
0.00207202
0.00206943
0.00207149
0.00207431
0.00210619
0.00211042
0.00211624
0.00212235
0.00212744
0.00208424
0.00209009
0.00207132
0.00205096
0.00190114
0.00197472
0.00209653
0.00205652
0.00201682
0.00204738
0.00208762
0.00210138
0.00182632
0.00197003
0.00196248
0.00179288
0.00188101
0.00195289
0.00201593
0.00198495
0.00209701
0.00206323
0.00210928
0.00220442
0.00229659
0.00213724
0.00210592
0.00217319
0.00220731
0.0021415
0.00203057
0.00203644
0.00199682
0.00228428
0.00253734
0.00270868
0.00277455
0.00272332
0.00256929
0.0023563
0.00211847
0.00190006
0.00176066
0.0018071
0.00181987
0.00181895
0.0018158
0.00194742
0.00194045
0.00193288
0.00192843
0.00192357
0.00213597
0.0022027
0.00221955
0.00222071
0.00221922
0.0023043
0.0022959
0.00228615
0.00227867
0.00226058
0.00221137
0.00226173
0.00227376
0.00227931
0.00228336
0.00227335
0.00227163
0.00226647
0.0022518
0.00219914
0.0023765
0.00238924
0.00239481
0.00240351
0.00241141
0.00235307
0.00235204
0.00234772
0.00233262
0.00228176
0.00220462
0.00221743
0.00222411
0.00222824
0.00223012
0.00236006
0.00235564
0.00235178
0.00235177
0.00235347
0.00232703
0.00232395
0.00233002
0.00233681
0.00234171
0.00233721
0.00233565
0.0023318
0.0023237
0.00231384
0.00226275
0.00228129
0.00228816
0.00228982
0.00228981
0.00218835
0.00218559
0.00218226
0.00218137
0.00218658
0.00224651
0.00223695
0.00223139
0.00222836
0.00222704
0.00213439
0.00212932
0.0021241
0.00212575
0.00215386
0.00212467
0.00211302
0.00211512
0.0021192
0.00212198
0.00214112
0.00214574
0.00215317
0.00216201
0.00216434
0.0020506
0.00203765
0.00203958
0.00204236
0.00204398
0.00200314
0.00200098
0.00199766
0.00199623
0.00201096
0.00201641
0.00201134
0.0020118
0.00201228
0.00201159
0.00204573
0.00204205
0.00203697
0.00203299
0.00203488
0.00198061
0.002004
0.0020122
0.00202196
0.00203147
0.00203956
0.00201847
0.00201129
0.00200069
0.00198899
0.00201105
0.00201199
0.00201439
0.00201623
0.00204719
0.00204518
0.00204316
0.00203907
0.00203075
0.00202077
0.00206427
0.00208358
0.00207602
0.00202573
0.00193305
0.00202989
0.00198524
0.00186259
0.00201193
0.00203506
0.00188389
0.00168598
0.0017756
0.00195315
0.00186358
0.00166025
0.0018208
0.00188541
0.00193167
0.00191883
0.0019543
0.00197395
0.00200467
0.00195718
0.00164257
0.00184852
0.00185517
0.00164756
0.00162286
0.00169157
0.00177703
0.00196379
0.00215029
0.00228594
0.00233793
0.00228195
0.00212399
0.00189333
0.00163936
0.00140663
0.00129921
0.00135311
0.00136106
0.00135647
0.00135102
0.00146512
0.00145853
0.00145201
0.00144846
0.00143974
0.00173833
0.00179391
0.00180543
0.00180295
0.0017981
0.00192397
0.00191569
0.00190652
0.00190175
0.0018976
0.00208068
0.00209353
0.00209976
0.00210589
0.00211047
0.00201151
0.00200565
0.00200021
0.00200109
0.00200133
0.00215794
0.00214254
0.00214018
0.00214448
0.00214915
0.00206849
0.00206578
0.00206572
0.00207347
0.00207912
0.00217605
0.00214612
0.00213469
0.00213385
0.00213539
0.00214411
0.00214234
0.00213952
0.00213825
0.00215008
0.00227943
0.00227954
0.00227438
0.00227274
0.00227362
0.00222263
0.00222183
0.00222219
0.00222959
0.00225968
0.00218221
0.00218205
0.00217467
0.0021714
0.00217044
0.00215194
0.00215352
0.00215747
0.00216714
0.0021829
0.0021084
0.00209604
0.00209484
0.00209693
0.00209884
0.00216266
0.00216248
0.00216173
0.00215918
0.00215096
0.0021863
0.00215278
0.00220804
0.00220617
0.00213619
0.00213624
0.00214002
0.00214233
0.00214276
0.00206654
0.00206465
0.00206311
0.00206699
0.00209047
0.00204231
0.00203838
0.00204125
0.00204188
0.00204148
0.00202609
0.0020248
0.00202254
0.0020201
0.00202847
0.00201904
0.00202305
0.0020242
0.00202398
0.00202359
0.00197398
0.00197441
0.00197524
0.0019796
0.00200123
0.00215504
0.00214881
0.00213433
0.00212367
0.00211777
0.00208633
0.0020896
0.00209636
0.00211266
0.00216383
0.00206704
0.00207946
0.00207131
0.00206858
0.00206719
0.00206807
0.00201797
0.00201956
0.00202315
0.00203494
0.00195742
0.00196778
0.00197323
0.00197654
0.0020977
0.00209472
0.00209113
0.00208181
0.00205585
0.00193507
0.00199758
0.00212323
0.00202385
0.00193203
0.00192328
0.00209981
0.00194907
0.00193968
0.00196987
0.00198026
0.00198192
0.00198108
0.00189136
0.0018909
0.00188928
0.00188834
0.00189749
0.00195122
0.00198412
0.00198723
0.00198527
0.00198276
0.00202068
0.00202789
0.00203428
0.00202974
0.00197556
0.00196478
0.00200875
0.00203045
0.00203687
0.00204139
0.00204723
0.00201086
0.00201347
0.00201434
0.00200707
0.00194451
0.00195186
0.00196114
0.00196741
0.00206467
0.00205844
0.00205077
0.00203947
0.0020235
0.00196107
0.00205842
0.0020622
0.00203341
0.00196092
0.0017756
0.00194525
0.00190684
0.00167268
0.00163379
0.00185284
0.00178853
0.00155799
0.00180284
0.0018768
0.00194391
0.00198548
0.00183689
0.00185373
0.00190279
0.00187747
0.00184506
0.00193263
0.00199363
0.00192857
0.00205504
0.00204755
0.00199279
0.00194491
0.00188245
0.00200155
0.00193832
0.00177681
0.00205069
0.00206395
0.00205513
0.00208476
0.00202906
0.00202974
0.0020041
0.00203545
0.00168198
0.00184945
0.00189654
0.00166981
0.00174485
0.00190913
0.00195722
0.00197529
0.0018596
0.00194171
0.00188565
0.00175775
0.0017406
0.00188324
0.00192069
0.00170065
0.00176517
0.001942
0.00194968
0.00174237
0.0018335
0.00197558
0.00199345
0.00187708
0.00176627
0.00197792
0.00194248
0.00169261
0.0019292
0.00192194
0.00189188
0.00185037
0.00177137
0.00176149
0.00176451
0.00176611
0.00199056
0.00199092
0.00199162
0.00199964
0.0020501
0.00227657
0.00222019
0.00219998
0.00218958
0.00218425
0.00197979
0.0019749
0.00197
0.0019791
0.00205569
0.00223715
0.00220951
0.00219497
0.00218789
0.00218467
0.00213806
0.00213438
0.00213085
0.00213593
0.00218717
0.00211165
0.00209021
0.00197318
0.0019335
0.00188194
0.00187425
0.00187573
0.00187647
0.00206941
0.00207124
0.00207212
0.00207195
0.0020913
0.00227115
0.00223539
0.00222117
0.00221693
0.00221591
0.00212931
0.00212524
0.00212051
0.00212351
0.00216655
0.00230952
0.0023033
0.00229627
0.00229295
0.00229146
0.0022082
0.00220794
0.00220765
0.0022114
0.00224361
0.00223476
0.00221494
0.00213304
0.00208621
0.00201135
0.00197554
0.00197263
0.00197444
0.00197579
0.00215887
0.00215967
0.00216338
0.00217523
0.00219084
0.00226179
0.00225353
0.00224619
0.00224475
0.00224559
0.00226746
0.00226559
0.00226253
0.00225886
0.00226247
0.00229145
0.00229704
0.00230096
0.0023012
0.00230055
0.00232121
0.00242947
0.00239539
0.00228304
0.00212175
0.00201719
0.00203648
0.00204419
0.0020437
0.00204129
0.00218597
0.00218176
0.00218003
0.0021856
0.0021938
0.00223343
0.00224625
0.00225047
0.00225679
0.00226315
0.00214314
0.00214646
0.00214687
0.0021338
0.0020881
0.00190186
0.00188009
0.0018777
0.00188327
0.00188889
0.00173911
0.00174351
0.0017465
0.00173851
0.00171512
0.00148819
0.00147474
0.00146742
0.00146717
0.00146887
0.00147935
0.00147603
0.00147296
0.00147447
0.00148283
0.00122722
0.00122107
0.00122236
0.00122804
0.00123363
0.00120012
0.00119973
0.00120107
0.00120428
0.00120321
0.00103828
0.00102537
0.0010267
0.00102912
0.00103135
0.00095174
0.000945994
0.000942436
0.000945888
0.00097061
0.00121594
0.00123514
0.00123845
0.00123296
0.00122607
0.00135894
0.00135307
0.00134754
0.00134953
0.00136934
0.00159351
0.00158228
0.00158272
0.00158759
0.00159286
0.00179125
0.0017961
0.00180012
0.00179472
0.001762
0.00187125
0.00190043
0.00190784
0.00190821
0.00190797
0.00180939
0.00181203
0.00181314
0.00180933
0.00181415
0.0018903
0.00187081
0.00187247
0.00187658
0.00188018
0.00199023
0.00199082
0.00199085
0.00198725
0.00197789
0.00195437
0.0019347
0.00193216
0.00193221
0.00193151
0.00214004
0.00214141
0.00214713
0.00215679
0.00216587
0.00192655
0.00190373
0.00190358
0.00190679
0.00190866
0.00196143
0.00196217
0.00196306
0.00196237
0.00195844
0.00195236
0.00192657
0.00192161
0.00192083
0.00192064
0.00206396
0.00206883
0.00207855
0.00209525
0.0021085
0.0021196
0.00208608
0.00207312
0.00206774
0.0020653
0.00187488
0.00187237
0.00186848
0.00186547
0.00187774
0.00189489
0.00188144
0.0018825
0.00188442
0.00188533
0.00211768
0.00212731
0.0021442
0.00216819
0.00217384
0.00222862
0.00224253
0.00222328
0.00220687
0.0021971
0.00220687
0.00220953
0.00221637
0.00222928
0.00223038
0.00230879
0.00229437
0.00229342
0.0022927
0.0022942
0.00207662
0.00207246
0.00206664
0.00206279
0.00206539
0.00193234
0.00194374
0.00198412
0.00200079
0.00201585
0.00202824
0.00206401
0.00206145
0.00205633
0.00203409
0.00215161
0.00215097
0.00215112
0.00215239
0.00213213
0.00212427
0.00211872
0.00211711
0.00213313
0.00214264
0.00205745
0.00210352
0.0019876
0.00189
0.00213867
0.00207505
0.00201627
0.00194551
0.00179714
0.00191772
0.00190163
0.00180662
0.00185243
0.00184441
0.00193486
0.00196276
0.00190961
0.0019522
0.00197613
0.00191524
0.00182558
0.00194317
0.0019143
0.00177308
0.00180908
0.00190071
0.00185718
0.00180298
0.0019086
0.00163525
0.0014558
0.0013028
0.00122495
0.00120872
0.00121158
0.00119607
0.00115209
0.00109261
0.00101665
0.00092696
0.00082578
0.000724283
0.000621186
0.000704742
0.000694633
0.000694165
0.000696574
0.000698593
0.000845504
0.0008568
0.000869056
0.000875614
0.000867502
0.000922028
0.000924569
0.000922258
0.000917068
0.000912134
0.000869035
0.000879192
0.000889476
0.000894812
0.000902102
0.00113666
0.00109148
0.001081
0.00108286
0.00108738
0.00124282
0.00125139
0.001259
0.00125815
0.0012568
0.00153285
0.00151098
0.00150014
0.0015
0.00150161
0.00170355
0.00170142
0.00170293
0.00171581
0.00175272
0.00159495
0.00160166
0.00160208
0.00160048
0.00159823
0.00155102
0.00155527
0.00155793
0.00155957
0.00158159
0.00190083
0.00187902
0.00186175
0.00185603
0.00185516
0.00192673
0.00192722
0.00193139
0.00194839
0.00200466
0.00172154
0.00172804
0.00172904
0.00172842
0.00172751
0.00174295
0.00174497
0.00174766
0.00175264
0.00177417
0.00200601
0.00200255
0.00198579
0.00197548
0.00197071
0.00195096
0.00195348
0.00195996
0.00197688
0.00202438
0.00175
0.00174266
0.0017439
0.00174604
0.0017466
0.00181268
0.00181342
0.00181416
0.00181366
0.00181257
0.00188218
0.00185866
0.00185214
0.00184914
0.00184726
0.00206851
0.00207863
0.00209518
0.00211507
0.00211036
0.00179064
0.00179496
0.00180152
0.00180474
0.00180611
0.00184397
0.00184091
0.00183359
0.00181884
0.00180162
0.00181537
0.00183299
0.00185084
0.00186267
0.00186902
0.00195865
0.00195168
0.00193971
0.00191855
0.00188463
0.00178993
0.00183501
0.00185822
0.00186982
0.00187567
0.00213093
0.00212567
0.00211716
0.00209531
0.00202249
0.00219179
0.00222534
0.00222443
0.0022214
0.00222067
0.00210174
0.00210562
0.00210884
0.00210273
0.00203012
0.00203754
0.00204932
0.00206055
0.00211969
0.00210446
0.00208758
0.00207275
0.00207981
0.00209456
0.00209801
0.00209861
0.00233199
0.00232861
0.00232502
0.00230937
0.00220733
0.00199945
0.00206412
0.00206078
0.00191145
0.00188405
0.00206578
0.00205678
0.00187802
0.00194579
0.00210873
0.00213997
0.00215329
0.0021596
0.00216608
0.00203984
0.00202877
0.00201057
0.0019899
0.00227392
0.00229686
0.00229692
0.00229694
0.00217918
0.00217395
0.00216563
0.00215015
0.00212866
0.00228964
0.00228277
0.00228281
0.0022759
0.0022719
0.00228915
0.00228479
0.00227952
0.00226862
0.00232912
0.0020363
0.00205668
0.00205897
0.00206351
0.00207097
0.0020781
0.00216174
0.00216341
0.0021637
0.00214832
0.00205957
0.00208564
0.00209551
0.00210271
0.00204914
0.00204101
0.00203195
0.0020219
0.00199153
0.00189611
0.00183353
0.00205413
0.00199634
0.00200686
0.00200458
0.00193092
0.00191635
0.00190764
0.00207493
0.001994
0.00190105
0.00191917
0.00197269
0.00189505
0.00196229
0.00194052
0.00191151
0.00164336
0.00128647
0.00092522
0.000666907
0.000569243
0.000624784
0.000751743
0.000850233
0.000857587
0.000775212
0.000647662
0.000566023
0.000494737
0.000459365
0.000399355
0.000425338
0.000410692
0.000402958
0.000395696
0.00038975
0.000460698
0.000461674
0.000465374
0.000476434
0.000511603
0.000559059
0.000546769
0.00054005
0.000530912
0.00052174
0.000670851
0.000673163
0.000679159
0.000695269
0.000724783
0.0009321
0.000887102
0.000866357
0.000857751
0.000853685
0.000972528
0.000980327
0.000986706
0.000988892
0.00100169
0.0013388
0.00130061
0.00128094
0.0012756
0.00127605
0.00147746
0.00147984
0.00148645
0.00150813
0.00157832
0.00132774
0.00133314
0.00133272
0.00133136
0.00133057
0.00135526
0.00135973
0.00136323
0.00136695
0.00139128
0.00175815
0.00173843
0.00171657
0.00170384
0.0016985
0.00176249
0.00176504
0.00177185
0.0017913
0.001852
0.00149504
0.00150472
0.00150648
0.00150658
0.00150572
0.00159922
0.00160209
0.00160572
0.00161138
0.00163001
0.00188611
0.00188452
0.00186493
0.00185004
0.00184243
0.00186238
0.00186959
0.00188379
0.00190651
0.00191958
0.00200152
0.00197064
0.00195064
0.00193926
0.00193368
0.00163904
0.00163746
0.00163131
0.00161873
0.00161087
0.00168604
0.00169343
0.00170354
0.00170996
0.00171246
0.00183038
0.00182761
0.00182391
0.00181967
0.00180634
0.00191207
0.00193838
0.0019434
0.00194458
0.00194508
0.00206189
0.00206132
0.00205984
0.00205348
0.00202145
0.00199804
0.00202527
0.00203121
0.00203305
0.00203315
0.00206561
0.00205734
0.00204323
0.002019
0.00197505
0.00204797
0.00205257
0.00206247
0.00207064
0.00207559
0.00221871
0.00222392
0.00223158
0.00223253
0.00217894
0.00208574
0.00217365
0.00218283
0.00218076
0.00217871
0.00209329
0.00208933
0.00208356
0.00207468
0.00202622
0.00213847
0.00214131
0.00213783
0.00213611
0.0021386
0.0021164
0.00197398
0.00200598
0.00196674
0.00205337
0.0021963
0.00182645
0.00199737
0.00221608
0.00185569
0.00219078
0.00291999
0.00204314
0.00218149
0.00225821
0.0025503
0.0020175
0.00165093
0.00115538
0.000739869
0.000463373
0.000397957
0.000488569
0.000632335
0.000724384
0.000703859
0.000601812
0.000486322
0.00039788
0.000367739
0.000329469
0.000430583
0.000434502
0.000431082
0.000427496
0.000425315
0.000331883
0.000338461
0.000342997
0.000343933
0.000350346
0.000592371
0.000583472
0.00056572
0.000551448
0.000542664
0.000782832
0.000792268
0.000804799
0.000817342
0.000836277
0.000777833
0.000759781
0.000757171
0.000752739
0.00074711
0.00113925
0.00114971
0.00116866
0.00119755
0.00122844
0.00139652
0.0013599
0.00134338
0.00133138
0.00132337
0.00126399
0.00126773
0.00127145
0.00127594
0.00129776
0.00167878
0.00165587
0.00162961
0.00161282
0.00160421
0.00167841
0.00168416
0.00169374
0.00170793
0.00172991
0.00135785
0.00134474
0.00134845
0.0013536
0.00135664
0.00148244
0.00148232
0.00148206
0.00148255
0.00149445
0.00157348
0.00157682
0.00157557
0.00157257
0.00157001
0.00166389
0.0016721
0.00168092
0.00168043
0.00164615
0.00170439
0.00173833
0.00173493
0.00172337
0.0017121
0.00193556
0.00194308
0.0019545
0.00195824
0.0019072
0.00191929
0.00194736
0.00195068
0.00195166
0.0019517
0.00197074
0.00196944
0.0019651
0.00195455
0.00190894
0.00204551
0.00208963
0.00210163
0.00210753
0.00211115
0.00219225
0.00219358
0.00219472
0.00219037
0.00214968
0.00221281
0.00223223
0.00223705
0.00224207
0.00224619
0.00232883
0.00233483
0.00234357
0.00234008
0.00225715
0.00206795
0.00203441
0.00204444
0.00206488
0.0020796
0.00237195
0.00236826
0.00236314
0.00235504
0.00231272
0.00226822
0.00225163
0.00225112
0.00225546
0.00225862
0.00223746
0.00224347
0.0022506
0.00224387
0.00217099
0.00201893
0.00213073
0.00214016
0.00213308
0.00212618
0.0022566
0.00226315
0.00227458
0.00226942
0.00214039
0.00189212
0.00191714
0.001929
0.00193712
0.00194196
0.00208447
0.00208841
0.00209087
0.00208151
0.0020427
0.00203991
0.00193983
0.00192988
0.00204233
0.002058
0.00192183
0.00197867
0.00198855
0.00199219
0.0019934
0.00206435
0.0020661
0.00206819
0.00206713
0.00201066
0.0019713
0.00199702
0.00195281
0.00192073
0.00190832
0.00194214
0.0019604
0.0019649
0.00190183
0.00196061
0.00199771
0.00197632
0.00197963
0.00219097
0.0020706
0.0020183
0.00207058
0.00201897
0.0019947
0.00195482
0.00187256
0.00189899
0.00196901
0.00201838
0.00202133
0.00207281
0.00204656
0.00200888
0.00200096
0.00198316
0.00198742
0.00204562
0.00210461
0.00205305
0.00202404
0.00198138
0.00193454
0.00192322
0.00198628
0.00201433
0.00200581
0.0019616
0.00198711
0.00198884
0.001942
0.00193638
0.00197771
0.00194861
0.00192002
0.00190181
0.00194658
0.00194142
0.00186945
0.00187186
0.00196848
0.00191034
0.00185019
0.00192076
0.00193656
0.00197419
0.00201103
0.00198826
0.00195842
0.00193415
0.00196293
0.00198843
0.00192874
0.00195293
0.00199751
0.00195076
0.0019562
0.0019439
0.00195646
0.00206506
0.00196544
0.00198145
0.00207979
0.00188552
0.00185802
0.00167968
0.00145834
0.00118221
0.000914743
0.000817508
0.00086146
0.00116352
0.00126838
0.00154713
0.00168374
0.00170697
0.00171878
0.0017276
0.00201685
0.00203219
0.00204936
0.00205774
0.00202816
0.00147291
0.00152373
0.00153211
0.00153244
0.00152906
0.00215337
0.00217354
0.00219932
0.0022128
0.00219448
0.00160107
0.00155596
0.00155137
0.00155414
0.00155464
0.00219371
0.00221404
0.00224428
0.00227603
0.00226473
0.00226165
0.0023177
0.00231899
0.002307
0.00229566
0.00168727
0.00168927
0.0016872
0.00168142
0.00166601
0.00162374
0.00165684
0.00165406
0.00165065
0.00164773
0.00203022
0.00203954
0.00205257
0.00207302
0.00215307
0.00168362
0.00162994
0.00162533
0.00162744
0.00162657
0.00176346
0.00176548
0.00176881
0.00177849
0.00182161
0.00219114
0.00210494
0.00207687
0.00206446
0.00205717
0.00198158
0.00198968
0.00200479
0.00203297
0.00206608
0.0021381
0.00205663
0.00203468
0.00202738
0.00202414
0.00198826
0.00199234
0.00200302
0.00202671
0.00207021
0.00203519
0.00198972
0.00198381
0.00198608
0.00198885
0.00174545
0.00170344
0.00169877
0.00169903
0.00169789
0.00177082
0.00177134
0.00177063
0.00177276
0.00179913
0.00206154
0.00203001
0.00200933
0.00200001
0.00199714
0.00197268
0.00197022
0.00197065
0.00198652
0.00206015
0.00207007
0.00206729
0.00207041
0.00207094
0.00207014
0.00211686
0.00211691
0.00211661
0.00211421
0.00210894
0.00218999
0.00210423
0.00194498
0.00173241
0.0016332
0.00162664
0.0016288
0.00162657
0.00162262
0.00184825
0.00184951
0.00185398
0.00187193
0.0019074
0.00191251
0.00189185
0.0018828
0.00188252
0.00188426
0.00169011
0.00169531
0.00170017
0.00169677
0.00168564
0.00152146
0.00149975
0.00148673
0.0014821
0.00148061
0.00124459
0.00124482
0.0012491
0.00126497
0.00129536
0.00124953
0.00123003
0.00122273
0.00122221
0.00122328
0.00107519
0.0010839
0.00109272
0.0010952
0.00109119
0.00115005
0.00118085
0.00118059
0.00116942
0.00115807
0.000821948
0.000819368
0.000818289
0.000823589
0.000843161
0.000867254
0.000848665
0.000848862
0.000853378
0.000856904
0.000806114
0.00080789
0.000810732
0.000816565
0.000834475
0.000851055
0.00086126
0.000854694
0.000843351
0.000834032
0.000592799
0.000590744
0.000588947
0.000590913
0.000605092
0.000588525
0.000553317
0.000547592
0.000548239
0.000549441
0.000547774
0.00055097
0.000554985
0.000560229
0.000575607
0.000573719
0.000566571
0.000558512
0.000548835
0.000540568
0.000583266
0.000583249
0.000585254
0.00059487
0.000627966
0.00076094
0.000728218
0.000718035
0.0007165
0.000716674
0.000628449
0.000549105
0.000583104
0.000563838
0.000555932
0.000550359
0.000546185
0.000464113
0.000458177
0.000490497
0.000492793
0.000489185
0.000482982
0.000477481
0.000468477
0.000466721
0.0004664
0.000472105
0.000501702
0.000452704
0.000447696
0.000444578
0.000440189
0.00043627
0.000379439
0.000379296
0.00037973
0.000382565
0.000394961
0.000339673
0.000328352
0.000325349
0.000326753
0.000328502
0.000369703
0.000371853
0.000375932
0.000386441
0.000413256
0.000439059
0.000428828
0.00042443
0.000417429
0.000410458
0.000557261
0.00056089
0.000569361
0.000586809
0.000614195
0.000830405
0.000781775
0.000762813
0.000752962