/*--------------------------------*- C++ -*----------------------------------*\
  =========                 |
  \\      /  F ield         | OpenFOAM: The Open Source CFD Toolbox
   \\    /   O peration     | Website:  https://openfoam.org
    \\  /    A nd           | Version:  7
     \\/     M anipulation  |
\*---------------------------------------------------------------------------*/
FoamFile
{
    version     2.0;
    format      ascii;
    class       volVectorField;
    location    "6.75";
    object      wallShearStress;
}
// * * * * * * * * * * * * * * * * * * * * * * * * * * * * * * * * * * * * * //

dimensions      [0 2 -2 0 0 0 0];

internalField   uniform (0 0 0);

boundaryField
{
    outlet1
    {
        type            calculated;
        value           uniform (0 0 0);
    }
    Wall
    {
        type            calculated;
        value           nonuniform List<vector> 
40276
(
(0.00042119 4.96816e-05 0.000169278)
(-0.000186931 -8.53065e-06 0.000415673)
(-0.000190645 -7.78106e-06 0.000407599)
(9.81976e-05 -1.78047e-05 0.000157521)
(8.35601e-05 1.36295e-05 0.000155048)
(8.30865e-05 5.62695e-05 0.00016148)
(9.84545e-05 4.63906e-05 0.000171714)
(0.000136181 3.6237e-05 0.000189592)
(0.000105728 2.42317e-05 0.000172036)
(0.000102048 8.26444e-06 0.000174765)
(0.000390329 3.88988e-05 0.000414029)
(0.000471883 1.60943e-05 0.000449228)
(0.000584546 4.0425e-05 0.000939531)
(0.000562513 3.90491e-05 0.000870255)
(0.000481442 -1.50961e-05 0.00033125)
(0.000430513 2.11266e-06 0.000360464)
(0.000390787 2.14904e-05 6.11783e-05)
(0.000350028 2.40277e-05 2.65475e-05)
(-0.000107113 -1.10406e-05 -0.000164845)
(-0.000115534 -3.94692e-05 -0.000183509)
(-0.000154075 3.89366e-05 0.000211814)
(-0.000185176 4.39667e-05 0.00019871)
(-0.000119706 3.2191e-05 6.80282e-05)
(-0.000138593 2.96183e-05 6.43494e-05)
(-0.000100066 2.372e-05 4.34278e-05)
(-0.000112361 2.47713e-05 3.76384e-05)
(-0.000122763 4.08325e-05 2.15456e-05)
(-0.000120294 4.12622e-05 1.57265e-05)
(-0.000180701 5.8335e-05 3.27261e-05)
(-0.000162059 5.00246e-05 2.39007e-05)
(-0.000120989 3.94738e-05 7.18009e-05)
(-0.000135477 4.73278e-05 7.92707e-05)
(-5.2567e-05 -3.17652e-06 0.000159663)
(-4.68101e-05 -4.86537e-06 0.000148392)
(-6.19544e-05 1.02607e-05 8.01742e-06)
(-6.08717e-05 1.16489e-05 7.57859e-06)
(0.000568225 6.53702e-05 0.000209233)
(0.000617374 4.65473e-05 0.000230066)
(0.0010617 0.000256362 0.000393694)
(0.0012024 0.000329923 0.000415827)
(0.000991096 6.18026e-05 0.000154255)
(0.000949436 3.37033e-05 0.000181187)
(-4.9147e-05 -1.44042e-05 -0.000390027)
(-2.89967e-05 -1.09908e-05 -0.000354313)
(-5.27089e-05 -2.08638e-06 -0.000355488)
(-4.4604e-05 -6.19421e-06 -0.000292841)
(-7.37757e-05 -3.14737e-07 -0.000300847)
(-5.6495e-05 -3.18898e-06 -0.000243387)
(-6.57264e-05 -8.00214e-07 -0.000210098)
(-6.41728e-05 1.10353e-06 -0.000175256)
(-5.27803e-05 -1.1771e-06 -0.00014418)
(-6.50357e-05 1.41727e-06 -0.000151292)
(-5.64121e-05 -1.81412e-07 -0.000121136)
(-5.96085e-05 2.28706e-06 -0.000122636)
(0.000441725 8.07622e-05 0.000259218)
(0.000459771 9.47627e-05 0.0002282)
(-1.81901e-05 1.35414e-05 0.000132381)
(6.40916e-05 2.19746e-05 0.000191015)
(-1.11498e-05 8.93346e-06 0.000135131)
(-0.000462896 -0.000145759 -0.00044294)
(-0.000491638 -0.000121139 -0.000452725)
(1.90522e-05 3.45172e-05 0.000291444)
(-1.27924e-05 -1.18281e-05 0.000225277)
(1.01068e-05 -9.99649e-07 -4.5206e-05)
(1.28666e-05 2.76798e-06 -4.1894e-05)
(6.40226e-06 5.7621e-09 -4.10687e-05)
(1.95532e-06 -2.57533e-06 -3.97551e-05)
(1.10171e-05 6.92324e-08 -4.21769e-05)
(-0.000118355 -1.89309e-05 -0.00010773)
(-0.000130497 -8.22044e-06 -0.000116999)
(-5.42498e-05 4.38087e-06 -0.000100587)
(-5.50724e-05 7.46772e-08 -0.000102379)
(-1.85488e-05 1.3947e-06 -1.89822e-05)
(-1.85507e-05 1.41122e-06 -1.86969e-05)
(-1.67771e-05 1.47075e-06 -1.82759e-05)
(-1.59126e-05 1.79694e-06 -1.75825e-05)
(-1.81297e-05 8.17846e-07 -1.81286e-05)
(2.26497e-05 -1.58558e-06 -6.38952e-06)
(1.96313e-05 -1.66918e-06 -1.00952e-05)
(-5.98808e-07 4.39264e-06 2.31323e-07)
(1.75935e-07 -1.6892e-07 1.77472e-07)
(7.96785e-06 -1.03111e-06 -4.32552e-07)
(1.90501e-05 3.15706e-07 1.30878e-05)
(1.84888e-05 4.49795e-07 1.34409e-05)
(2.84274e-05 -2.03203e-06 1.99893e-05)
(5.72029e-06 5.00566e-07 -3.61716e-05)
(1.50985e-06 -1.77421e-06 -3.47171e-05)
(4.71319e-06 9.32049e-07 -3.14309e-05)
(2.56547e-05 -2.20683e-06 1.85346e-05)
(2.47949e-05 -1.77696e-06 1.79059e-05)
(2.1343e-05 -1.15908e-06 1.59119e-05)
(-4.46246e-05 -4.77457e-06 -4.0381e-05)
(6.7696e-07 -1.09941e-06 -3.02359e-05)
(3.73415e-06 1.21826e-06 -2.7394e-05)
(1.235e-07 -5.49279e-07 -2.6492e-05)
(-4.32139e-07 -3.08989e-07 -2.30635e-05)
(-9.50586e-07 5.5729e-08 -2.01073e-05)
(-1.68638e-06 2.04164e-07 -1.80589e-05)
(-4.90783e-06 -2.99975e-07 -1.4425e-05)
(-5.55386e-06 -1.14252e-07 -1.3571e-05)
(-6.37713e-06 -5.74588e-10 -1.32346e-05)
(-9.481e-06 -2.74715e-07 -1.36563e-05)
(-9.74438e-06 -2.03524e-07 -1.41129e-05)
(-5.01002e-05 -1.01951e-06 -4.39539e-05)
(-1.00522e-05 -3.1245e-08 -1.50012e-05)
(-1.87623e-05 -3.9082e-06 -2.28909e-05)
(-1.56279e-05 -3.8728e-06 -1.82839e-05)
(-9.9537e-06 -1.2187e-07 -1.56459e-05)
(-9.90095e-06 3.51781e-08 -1.67127e-05)
(-9.54228e-06 -5.51128e-07 -1.70989e-05)
(-9.7467e-06 4.09976e-08 -1.81889e-05)
(-9.23287e-06 -6.11529e-07 -1.898e-05)
(-8.69004e-06 -2.6414e-07 -1.94099e-05)
(-8.45712e-06 -1.04616e-06 -2.09442e-05)
(-8.16542e-06 -1.63781e-06 -1.96488e-05)
(4.18073e-06 -8.87841e-07 -2.63892e-05)
(4.03149e-06 -2.89485e-06 -2.77671e-05)
(2.54933e-06 -2.9053e-06 -2.62167e-05)
(-0.000276719 -6.29536e-05 0.000486868)
(-0.000279752 -6.1443e-05 0.000441474)
(-1.47629e-05 -1.24429e-06 5.40705e-06)
(-1.24526e-05 -1.42532e-06 6.71164e-06)
(-4.1192e-05 -1.81975e-06 1.65762e-05)
(-3.55417e-05 -3.12964e-06 1.53635e-05)
(-4.34394e-06 -8.81468e-06 -5.38388e-06)
(-2.07253e-06 -8.7085e-06 -2.6709e-06)
(-0.000127429 2.5268e-05 0.000183975)
(-0.000110651 3.39946e-05 0.000156474)
(-0.000160204 -1.77145e-05 0.000274307)
(-0.000139979 -2.37723e-05 0.000236129)
(-0.000102876 -6.11181e-06 0.000172731)
(-9.0009e-05 -9.16896e-06 0.000148667)
(-0.00015633 9.38212e-05 0.000466817)
(-0.000216667 0.000169343 0.000652422)
(7.42425e-06 -1.18786e-05 0.000188647)
(-1.23726e-06 -4.62251e-06 0.00015942)
(-0.000102143 2.7569e-05 0.000193052)
(-5.57698e-05 1.31777e-06 0.000167468)
(-0.000180173 -5.69421e-05 0.000490686)
(-0.000179882 -4.00007e-05 0.000491389)
(-0.00017974 -4.50281e-05 0.000525581)
(-0.000195512 -2.12397e-05 0.000527111)
(-0.000559981 1.79303e-06 -0.000151441)
(-0.000642582 2.50282e-06 -0.000183637)
(-2.27555e-05 -7.96784e-05 9.95794e-06)
(-2.65496e-05 -7.89422e-05 1.1924e-05)
(-2.14481e-05 -4.38752e-05 6.54988e-05)
(-2.52119e-05 -5.36648e-05 8.18406e-05)
(-2.90498e-05 -5.25593e-05 6.60956e-05)
(-2.3219e-05 -4.04621e-05 5.37561e-05)
(-1.54687e-05 -8.61463e-05 8.48782e-06)
(-1.98959e-05 -9.83539e-05 6.53325e-06)
(-2.34956e-05 -8.34767e-05 8.81934e-06)
(-2.18831e-05 -8.64845e-05 9.21272e-06)
(-2.31359e-05 -0.000128636 -1.56103e-05)
(-1.99742e-05 -0.000111411 -1.41258e-05)
(-7.64298e-06 -5.66219e-05 -3.31689e-06)
(-9.87886e-06 -5.05372e-05 -4.75771e-06)
(-6.09812e-05 -3.12362e-05 9.45484e-05)
(-5.57697e-05 -3.30621e-05 8.93491e-05)
(8.97687e-05 3.85267e-06 -0.000233683)
(9.78393e-05 -5.05295e-06 -0.000218387)
(-0.00013719 -5.94947e-05 -1.25091e-05)
(-0.000136014 -6.64842e-05 -1.47041e-05)
(-0.00029861 -4.80416e-05 0.000146938)
(-0.000320522 -5.21834e-05 0.000138278)
(-0.000291723 -7.46287e-05 -2.60613e-05)
(-0.000285096 -6.18406e-05 -3.52695e-05)
(-0.000173984 0.000193095 0.000236896)
(-0.000167832 0.00024169 0.000219983)
(-0.000249114 -4.48507e-05 1.31764e-05)
(-0.000131165 -4.67544e-05 -1.84888e-05)
(-0.000206895 -7.75466e-05 7.47319e-05)
(-0.000178249 -7.59693e-05 6.31926e-05)
(-0.000227756 -5.19363e-05 5.88587e-05)
(-6.74213e-05 -4.22654e-05 -7.10709e-06)
(-3.91084e-05 -2.09149e-05 6.05098e-05)
(-3.22283e-05 -1.93928e-05 5.58635e-05)
(0.000554452 -0.000218549 0.000415093)
(0.000507438 -0.000191297 0.000345831)
(0.000490436 -0.000274042 0.000228058)
(0.000461261 -0.000202415 0.000257942)
(0.000470814 -0.000235507 0.00025481)
(0.000239834 -0.000156641 0.000185647)
(0.000335147 -0.000213948 0.000216744)
(0.000262538 -0.00015758 0.000199767)
(0.000432506 -0.000196508 0.000350132)
(0.000456317 -0.000240723 0.000334067)
(0.000449762 -0.00023519 0.000289357)
(0.000349088 -0.000234302 0.000188634)
(0.000452958 -0.000284142 0.000187837)
(0.000377526 -0.000210359 0.000241885)
(0.000145034 -7.748e-05 0.00016085)
(0.000233029 -0.000158318 0.000185504)
(0.000179892 -9.42785e-05 0.000181364)
(0.000134315 -6.23885e-05 0.000165312)
(7.50205e-05 4.1632e-05 0.000155167)
(0.000283429 0.000110885 4.48591e-05)
(0.00034422 0.000110259 9.55249e-05)
(0.000294459 7.39385e-05 0.00010767)
(0.00031173 5.89274e-05 4.70539e-05)
(0.000371872 6.28124e-05 9.73626e-05)
(0.000335637 9.85413e-05 8.96778e-05)
(0.000301654 7.3974e-05 6.72611e-05)
(9.82624e-05 5.15108e-05 9.27187e-05)
(0.000114078 6.24709e-05 9.08235e-05)
(9.32213e-05 1.00873e-05 0.000144733)
(9.74339e-05 1.52954e-05 0.000144082)
(0.000111371 8.12015e-06 0.000167071)
(9.1951e-05 -5.55357e-07 0.000149759)
(0.000102552 3.13159e-05 0.000141921)
(8.21149e-05 3.3463e-05 0.00010947)
(7.83832e-05 3.59396e-05 8.12688e-05)
(7.33202e-05 1.60141e-05 9.93441e-05)
(6.82917e-05 5.85213e-06 0.000113891)
(5.08123e-05 -3.35477e-06 9.04294e-05)
(6.55412e-05 -8.52658e-06 0.000108426)
(5.62004e-05 1.41668e-05 7.76593e-05)
(4.68107e-05 1.15569e-05 6.58661e-05)
(5.10158e-05 9.49911e-06 7.50413e-05)
(0.000152183 9.03211e-05 5.00584e-05)
(0.000182961 0.000100175 6.79698e-05)
(0.000187203 9.06898e-05 7.88962e-05)
(0.00017926 8.60984e-05 4.80185e-05)
(0.000112417 6.42262e-05 7.89772e-05)
(0.000128583 7.3341e-05 5.36549e-05)
(0.000137142 7.9677e-05 3.24644e-05)
(0.000139467 6.80362e-05 4.2824e-05)
(0.000121748 6.52088e-05 4.83941e-05)
(0.000266678 0.000109136 3.77883e-05)
(0.000219009 0.000103111 3.54287e-05)
(0.000283696 0.000100672 5.15698e-05)
(0.000258495 7.34729e-05 3.67696e-05)
(0.000229995 9.58215e-05 2.36971e-05)
(0.000211055 7.25006e-05 2.9432e-05)
(7.97406e-05 4.47721e-05 5.7408e-05)
(8.52559e-05 4.3292e-05 6.18983e-05)
(6.78213e-05 3.02187e-05 6.98149e-05)
(0.00010296 6.14415e-05 4.89945e-05)
(5.75981e-05 2.44674e-05 5.92637e-05)
(6.89098e-05 4.05488e-05 3.8652e-05)
(0.000115082 6.13817e-05 5.76911e-05)
(0.000150976 7.7915e-05 2.65125e-05)
(7.39031e-05 4.85051e-05 1.11033e-05)
(8.62968e-05 4.66528e-05 2.82899e-05)
(7.51571e-05 4.76504e-05 2.26471e-05)
(0.00013715 8.0634e-05 8.19354e-06)
(0.000168729 8.48807e-05 -1.25665e-05)
(0.000153012 5.94253e-05 2.41759e-05)
(0.000148881 7.30356e-05 1.1994e-05)
(0.000314081 2.81215e-05 0.000549073)
(0.000352065 5.70015e-05 0.000638413)
(0.00032 -1.47355e-06 0.000570779)
(0.000331575 2.86987e-05 0.000586714)
(0.000356511 9.96948e-05 0.000397031)
(0.00038584 0.000105199 0.000472099)
(0.000276271 9.50305e-05 0.000388522)
(0.000301889 8.93382e-05 0.000445003)
(0.000294535 0.000105387 0.00044175)
(0.000276251 8.72609e-05 0.000454633)
(0.000391828 0.000156309 0.000507702)
(0.000328588 0.000132391 0.000381631)
(0.000374585 0.000138303 0.000475795)
(0.000238097 8.99017e-05 0.000387564)
(0.000319367 0.000115903 0.000483936)
(0.00040684 0.000129957 0.000385204)
(0.000364203 0.000134629 0.000453554)
(0.000357347 0.000131544 0.00045481)
(0.000410739 0.000135084 0.000563323)
(0.00042661 0.000169421 0.000498774)
(0.000469633 0.000183424 0.000496159)
(0.000461103 0.000190977 0.00046778)
(0.000450766 0.000158388 0.000559233)
(0.000435505 0.000162876 0.00055921)
(0.000400735 7.35414e-05 0.000467752)
(0.000513266 7.91465e-05 0.000499765)
(0.000393199 9.28011e-05 0.000481148)
(0.000303858 9.45061e-05 0.000375818)
(0.000383892 9.11256e-05 0.000469221)
(0.00041971 7.09643e-05 0.000409277)
(0.000314822 5.61769e-05 0.000307523)
(0.000339584 0.000102035 0.000368406)
(0.000364689 8.41048e-05 0.000357642)
(0.000368502 9.4182e-05 0.000348895)
(0.000495373 -4.16494e-05 0.000434375)
(0.000510349 -5.97772e-05 0.000432026)
(0.000523377 -0.000140194 0.000418059)
(0.000408246 -6.3277e-05 0.000373195)
(0.000491259 -0.000120157 0.000327219)
(0.000385009 -9.44392e-06 0.000343227)
(0.00053535 -0.000130689 0.000355139)
(0.000365501 -2.84131e-05 0.000293522)
(0.000472137 -0.000100127 0.000284081)
(0.000554045 -0.00021158 0.000270085)
(0.000344082 5.81279e-05 0.000357525)
(0.000343771 8.62361e-05 0.000375102)
(0.00038336 2.4452e-05 0.000311544)
(0.000380487 6.41325e-05 0.000328697)
(0.000397722 0.000143085 0.000380358)
(0.000430774 0.000148427 0.000512074)
(0.000429241 0.000146686 0.000460005)
(0.000444303 0.000127937 0.000374095)
(0.000499583 0.000162957 0.000417578)
(0.000497378 0.000189913 0.000525629)
(0.000446774 0.000157673 0.000524029)
(0.00047262 0.000155525 0.000553593)
(0.000472169 0.000172594 0.000399096)
(0.000452559 0.00015928 0.000526311)
(0.000452731 0.000164228 0.000525513)
(0.00057216 0.000207852 0.000658053)
(0.000546367 0.000195753 0.000514362)
(0.000403741 0.000117313 0.000370521)
(0.00057198 0.000180281 0.000422246)
(0.00045477 0.000104803 0.000392627)
(0.000584194 0.000147585 0.000398766)
(0.000514349 0.000178477 0.000439977)
(0.000519684 0.000163492 0.000512284)
(0.00069539 0.000262097 0.000524575)
(0.000551475 0.00018742 0.000432528)
(0.000527389 0.000160275 0.000456141)
(0.000736602 0.000259448 0.000483249)
(0.000567508 0.000245267 0.000484569)
(0.000604282 0.000209114 0.000592899)
(0.000559786 0.000181818 0.000626413)
(0.000662504 0.000226109 0.000620675)
(0.000660838 0.000231804 0.000599495)
(0.00034958 0.000139556 0.000456758)
(0.000341343 0.000130428 0.000451651)
(0.000234587 6.99475e-05 0.000425985)
(0.000338535 0.000128116 0.000489398)
(0.000425571 0.000120474 0.000633316)
(0.000389313 0.000110778 0.000582407)
(0.000377424 0.000145445 0.00049172)
(0.000397002 0.000153458 0.000511179)
(0.000380254 0.00014676 0.000559882)
(0.000361447 6.1762e-05 0.000646722)
(0.000312193 4.2365e-05 0.000578967)
(0.000366765 0.000107848 0.000607417)
(0.000349404 9.48947e-05 0.000601712)
(0.000312557 4.17539e-05 0.000506691)
(0.000423355 0.000169508 0.000537753)
(0.000448205 0.000138326 0.000626759)
(0.000399846 0.000121862 0.000609737)
(0.000385357 -5.51506e-06 0.000636564)
(0.000474904 0.00014327 0.000711383)
(0.000356844 5.8489e-05 0.000605736)
(0.000462343 0.000185078 0.000525105)
(0.000501478 0.000194172 0.000563964)
(0.00044695 0.000140246 0.000625894)
(0.000437148 0.000174293 0.000559821)
(0.000505151 0.000203196 0.000564054)
(0.000502433 0.000126311 0.000695451)
(0.000512566 0.000143881 0.000781738)
(0.000408392 4.67116e-05 0.00067456)
(0.000374804 4.54267e-05 0.00061396)
(0.000406629 7.67469e-05 0.000648486)
(0.000461902 0.000129387 0.000688798)
(0.000394306 7.3453e-05 0.000607007)
(0.000512926 0.00021818 0.000602253)
(0.000511989 0.000104938 0.000749566)
(0.000591973 0.000190758 0.00085174)
(0.00028132 1.13477e-05 0.000491279)
(0.000292601 5.4895e-05 0.000500401)
(0.000356781 0.000131369 0.000558257)
(0.000375675 8.34241e-05 0.00063627)
(0.000353821 2.59843e-05 0.000586757)
(0.00043688 9.3157e-05 0.000693911)
(0.000335146 -1.23976e-05 0.000566682)
(0.000337371 3.98305e-05 0.000558393)
(0.000430339 0.000143114 0.000676538)
(0.00035902 4.56657e-05 0.000610898)
(0.000313815 3.68678e-05 0.000526616)
(0.000382116 -4.78841e-06 0.000630465)
(0.000331687 4.26094e-05 0.000557047)
(0.000353105 4.5847e-05 0.000582162)
(0.000429188 4.26019e-05 0.000701197)
(0.000335315 8.737e-05 0.000576624)
(0.000334346 5.95649e-05 0.000563581)
(0.000426306 -5.77951e-05 0.000653465)
(0.000478373 0.000128548 0.000753204)
(0.000411223 -2.17488e-05 0.000692491)
(0.00052356 6.54553e-05 0.000856078)
(0.000399688 1.22077e-05 0.000667831)
(0.000419976 3.45089e-05 0.000684818)
(0.000529104 0.000159718 0.000768358)
(0.000424162 5.3509e-05 0.000678052)
(0.000484681 3.51721e-05 0.000771728)
(0.000522207 4.50825e-05 0.000855736)
(0.000532153 1.92381e-05 0.00085425)
(0.000419919 3.57428e-05 0.00067292)
(0.000474717 4.15925e-05 0.000753301)
(0.000424497 1.54461e-05 0.000674155)
(0.000484155 4.93429e-05 0.000766319)
(0.000546599 0.000175048 0.000685844)
(0.000535084 0.000191904 0.000614044)
(-2.10068e-05 -4.91169e-05 0.000160218)
(0.000565211 0.000153214 0.000775203)
(0.000491395 0.000138539 0.000664764)
(0.000614821 0.000227028 0.000665145)
(0.000573556 0.000220855 0.000600575)
(0.000609145 0.000214065 0.000674804)
(-2.52649e-05 -4.87924e-05 0.000159659)
(0.00054336 0.000172491 0.000711465)
(0.000562809 0.000207439 0.000657379)
(0.000609901 0.000228241 0.000685887)
(0.000555313 0.000167638 0.000764884)
(0.000624352 0.000177516 0.000912093)
(-2.29051e-05 -4.85732e-05 0.000156937)
(0.00046806 7.12776e-05 0.000728145)
(0.000433122 6.25729e-05 0.000709967)
(0.0004666 9.5836e-05 0.00070573)
(0.000526294 5.94017e-05 0.000795158)
(0.000463766 0.000106372 0.000702905)
(-2.53751e-05 -3.80853e-05 0.000159949)
(0.000575303 0.000235247 0.000663278)
(0.000594297 0.000121094 0.00083701)
(0.000681838 0.000216521 0.00092996)
(0.00065527 0.000218497 0.000773948)
(0.000714597 0.000252034 0.000648913)
(0.000771881 0.00028505 0.000655859)
(0.000644955 0.000189797 0.000833263)
(0.000603439 0.00017457 0.000746402)
(0.000632899 0.000257174 0.000626594)
(0.000666689 0.000236981 0.000679164)
(0.000641995 0.000203635 0.000759516)
(0.000711094 0.000244507 0.00080975)
(0.000736717 0.000282754 0.000777129)
(0.00065769 0.000204579 0.000837065)
(0.000684438 0.000170985 0.000940708)
(0.000561113 0.000136689 0.000783775)
(0.00062661 0.000139651 0.000974893)
(0.000509379 0.000103983 0.000752751)
(0.000587345 8.10605e-05 0.000888604)
(0.000730421 0.000241159 0.000926106)
(0.000606236 0.000195597 0.000767176)
(0.00064565 0.000168864 0.000921288)
(0.000538395 9.00614e-05 0.000868518)
(0.000557481 0.000149475 0.000789706)
(0.000729795 0.000132592 0.00102419)
(0.000640312 0.000146247 0.000993969)
(0.000590901 6.59813e-05 0.000948688)
(0.000592077 2.05549e-05 0.000943172)
(0.000474766 2.91423e-05 0.000787896)
(0.000467147 6.49985e-05 0.000733759)
(0.000601889 0.000120055 0.000870993)
(0.000615018 0.000127166 0.000960911)
(0.000577285 2.79144e-05 0.000904317)
(0.000593681 3.91696e-05 0.000934938)
(0.000602776 -3.83719e-05 0.000936983)
(0.000583799 3.98857e-05 0.000893895)
(0.00066943 0.000132098 0.00097193)
(-3.13488e-05 -4.31844e-05 0.000168337)
(0.000501754 -1.69491e-06 0.000821647)
(0.000456528 5.65983e-05 0.000719038)
(0.0006502 0.00015162 0.00095788)
(0.000678423 0.000191182 0.00101631)
(0.000565853 -1.37219e-06 0.00094539)
(0.000705457 6.42164e-05 0.00111378)
(0.000526958 4.26068e-05 0.000828982)
(0.000650227 3.08724e-05 0.000997517)
(0.000519988 5.40966e-05 0.000822894)
(0.00050066 -1.71717e-05 0.000763085)
(0.000642694 -8.93938e-05 0.000953056)
(0.000690592 3.36808e-05 0.00109453)
(0.000691158 2.57197e-06 0.00108367)
(0.000366376 -5.09983e-05 0.000532822)
(0.00028848 1.96594e-05 0.000447257)
(0.000323171 9.4534e-06 0.000463751)
(0.000312393 9.5784e-06 0.000477756)
(0.000224606 4.03348e-05 0.000401315)
(0.000298433 2.78115e-05 0.000462052)
(0.000381393 2.86636e-06 0.00049539)
(0.000298989 4.63293e-05 0.000467118)
(0.000348399 4.45964e-05 0.000618854)
(0.000350001 6.14772e-05 0.000593349)
(-2.31175e-05 -4.18233e-05 0.000153514)
(-2.67855e-05 -4.38562e-05 0.000160413)
(-2.47855e-05 -4.05221e-05 0.000148592)
(-2.62681e-05 -3.6844e-05 0.000149454)
(0.000390871 3.29921e-05 0.000611477)
(0.000353756 7.4934e-05 0.000560508)
(0.000421049 1.46301e-05 0.000564853)
(0.000377665 3.18884e-05 0.0005076)
(0.000396157 -1.2853e-05 0.000511619)
(0.000392835 4.13069e-06 0.000482921)
(-2.97102e-05 -3.6235e-05 0.000154832)
(0.000414453 1.77182e-06 0.000533625)
(-3.5033e-05 -2.89073e-05 0.000164908)
(-3.01253e-05 -3.46158e-05 0.000155922)
(0.000442016 1.23139e-05 0.000222552)
(0.000439213 1.62059e-05 0.000269541)
(0.000418997 -1.36033e-05 0.000256529)
(-3.34656e-05 -3.44598e-05 0.000153948)
(-2.65189e-05 -3.83403e-05 0.000164582)
(-2.59146e-05 -4.18792e-05 0.000161125)
(-3.23179e-05 -3.37819e-05 0.000175017)
(-3.38594e-05 -4.23215e-05 0.000182625)
(-2.9702e-05 -3.03066e-05 0.000166632)
(-2.85655e-05 -2.6258e-05 0.000159433)
(-3.46633e-05 -3.44989e-05 0.000159021)
(0.000390679 6.33198e-05 7.45344e-05)
(0.000451092 6.38586e-05 0.000138592)
(0.00037125 3.30737e-05 8.24844e-05)
(0.000356765 6.61279e-05 6.15798e-05)
(0.00037247 4.70294e-05 8.49489e-05)
(0.000433169 1.14816e-05 0.000127643)
(0.000419093 1.27792e-05 0.000188241)
(0.000446104 -2.9519e-05 0.000197108)
(0.000439518 1.14996e-06 0.000163886)
(0.00041948 2.10941e-07 0.000204823)
(0.00040853 2.92221e-05 9.19316e-05)
(0.000426278 -7.62954e-06 9.8489e-05)
(0.000433464 -8.90394e-06 0.000383417)
(0.000411363 5.75143e-06 0.000417808)
(0.000399269 -2.25218e-06 0.000435322)
(0.000361019 5.74392e-06 0.000418365)
(0.00039192 3.03875e-06 0.000458512)
(0.000329456 2.4457e-05 0.000426286)
(0.000460514 -4.28899e-06 0.000413827)
(0.000466791 -2.50987e-05 0.00035465)
(0.000469904 -1.44955e-05 0.000340063)
(0.000410573 -4.46121e-06 0.000352534)
(0.000391694 -2.26306e-05 0.000442886)
(0.000406704 -1.44337e-05 0.000397839)
(0.000432511 2.21812e-05 0.000512578)
(0.000498366 -3.46321e-05 0.000249586)
(0.000461164 -5.08923e-05 0.000333661)
(0.000471316 -5.19824e-05 0.000280654)
(0.000485093 -3.37645e-05 0.000353579)
(0.000518876 -8.54523e-05 0.000230819)
(0.000458979 -4.85171e-05 0.00038605)
(0.000427633 -4.30176e-05 0.000448602)
(0.000467042 -7.05105e-05 0.000429903)
(0.000470923 -1.52295e-05 0.000518572)
(0.000551495 -0.000100476 0.00041041)
(0.000510965 -0.000100855 0.000338912)
(0.000522329 -9.08712e-05 0.000275255)
(0.000507896 -6.7868e-05 0.000344977)
(0.00045383 -4.8374e-05 0.000179482)
(0.000450386 -3.93031e-05 0.000143859)
(0.000482455 -4.24021e-05 0.000184113)
(0.000328943 7.44378e-05 3.19595e-05)
(0.000339273 5.71686e-05 5.86976e-05)
(0.000292491 8.29281e-05 1.07926e-05)
(0.000317039 6.95413e-05 2.90987e-05)
(0.000360652 3.15829e-05 5.10581e-05)
(0.000405752 -6.93457e-07 7.36306e-05)
(0.000333561 4.5795e-05 5.0133e-05)
(0.000224077 8.15416e-05 -8.30749e-07)
(0.000306585 8.8886e-05 1.56921e-05)
(0.000141169 6.89253e-05 3.92861e-05)
(0.000152071 6.62651e-05 1.56275e-05)
(0.000254057 9.62768e-05 8.78826e-06)
(0.00026817 7.15695e-05 4.44738e-05)
(0.000246714 3.97691e-05 -1.53946e-05)
(0.000289489 4.86903e-05 2.92817e-05)
(0.000348487 3.7946e-05 2.03002e-05)
(0.000244783 7.62985e-05 7.13266e-06)
(0.000234456 5.46633e-05 1.18274e-05)
(0.000312573 5.4503e-05 1.82783e-05)
(0.000583177 -0.000134935 0.000197126)
(0.000568227 -0.000138791 0.000350889)
(0.000554912 -0.000135974 0.000278139)
(0.000580761 -0.000125219 0.000355445)
(0.000461682 -2.86701e-05 0.00011276)
(0.000504683 -0.00010151 0.000176191)
(0.000464137 -5.24732e-05 0.000154085)
(0.000469101 -7.34753e-05 0.000157403)
(0.000419262 -1.63853e-05 7.0287e-05)
(0.00045482 -5.75718e-05 0.000105135)
(0.000541135 -0.000109216 0.00014097)
(0.000585861 -0.000127938 0.000176583)
(0.000613407 -0.000195552 0.000246138)
(0.000575821 -0.000135183 0.000169087)
(0.000550598 -0.000143853 0.00019889)
(0.000384669 1.67382e-05 4.25183e-05)
(0.000396164 -7.64166e-06 4.20997e-05)
(0.000426187 -5.69224e-05 9.84341e-05)
(0.000398128 -7.7762e-06 7.12076e-05)
(0.000413873 -3.50005e-05 6.09334e-05)
(0.000327299 3.36863e-05 4.63995e-05)
(0.000374328 -4.5296e-06 4.33952e-05)
(0.000550898 -0.00010122 0.000103279)
(0.000581417 -0.000156255 0.000120778)
(0.00060156 -0.00015702 0.000111821)
(0.000465375 -6.91779e-05 0.000111875)
(0.000428421 -3.20412e-05 0.000124431)
(0.000477112 -6.87818e-05 9.10774e-05)
(0.000307169 5.41474e-05 0.000524867)
(0.000325889 3.5079e-05 0.000541572)
(0.000368579 -1.57302e-05 0.000578033)
(0.000367282 7.24689e-06 0.000570277)
(0.000313791 7.29525e-05 0.000529551)
(0.000355372 6.92872e-06 0.000537869)
(0.000454752 -2.71182e-05 0.000678164)
(0.000325583 2.78974e-05 0.00053237)
(0.000357219 1.46354e-05 0.000551637)
(0.000413499 2.5035e-05 0.000636413)
(0.000405086 -1.32653e-05 0.000561343)
(0.000372652 1.03719e-05 0.000525263)
(0.000416427 1.58359e-05 0.00059588)
(0.000484062 -1.872e-05 0.000687396)
(0.000490703 1.91927e-05 0.00080789)
(0.00036831 4.85308e-05 0.00059005)
(0.000421892 4.86492e-05 0.000682571)
(0.000404891 5.15149e-05 0.000677671)
(0.000433264 2.31105e-06 0.000664937)
(0.000574516 -6.92636e-05 0.000811803)
(0.000531428 -0.000116853 0.00070888)
(0.000439948 6.21395e-05 0.000716138)
(0.00046019 -1.57237e-05 0.000677435)
(0.0004132 4.17544e-06 0.000581148)
(0.000466454 5.54529e-06 0.000663227)
(0.00045524 -4.12031e-05 0.000566489)
(0.000412785 -3.24283e-05 0.000491222)
(0.000462851 -1.48028e-05 0.000588902)
(-3.6209e-05 -2.99917e-05 0.000160899)
(0.000530111 -0.000112381 0.000632156)
(0.00050101 -8.05469e-05 0.000534321)
(0.000544397 -3.1564e-05 0.000661538)
(0.000430738 -2.51859e-05 0.000615083)
(0.000500419 -5.86763e-05 0.000633351)
(0.000568113 -4.59674e-05 0.000741755)
(0.000518719 -0.000109022 0.000521614)
(0.000511693 -0.000101362 0.000436141)
(0.000496651 -4.49899e-05 0.000541354)
(0.00063508 -4.24424e-05 0.000968281)
(0.000443753 4.18597e-06 0.000678637)
(-3.63571e-05 -2.58219e-05 0.000148719)
(0.000474113 -2.45589e-05 0.000676308)
(0.000548083 -1.56202e-05 0.00079967)
(0.00062005 -9.10063e-05 0.000870562)
(0.000634749 -0.000135648 0.000803618)
(0.000466499 -6.87289e-05 0.000579638)
(-4.14733e-05 -2.12643e-05 0.000160474)
(0.000579521 -0.000212945 0.000533845)
(0.000602572 -8.37386e-05 0.000721503)
(0.000610355 -0.000104119 0.000827575)
(0.000540923 -0.000111033 0.000679261)
(0.000600665 -7.07257e-05 0.000793808)
(0.000665732 -0.000148496 0.000772491)
(0.000597738 -0.00013648 0.00061675)
(0.000728899 -0.000249085 0.000783858)
(0.000652759 -0.000259651 0.000604607)
(0.000680086 -0.000179053 0.000759709)
(0.000480225 1.40215e-05 0.000751183)
(0.000485155 -4.1655e-05 0.000707894)
(0.000596477 -5.73588e-05 0.000860453)
(0.000639407 -6.12946e-05 0.000953857)
(0.00062826 -0.000159675 0.000868958)
(0.000576837 1.72331e-05 0.000865712)
(0.000655151 -0.000116704 0.00097562)
(0.000619337 5.34316e-05 0.000965406)
(0.000580798 -6.71693e-05 0.000856647)
(0.000571231 -0.000103333 0.000792379)
(0.00068152 -0.000141558 0.000936046)
(0.000564482 -0.000120566 0.00077261)
(0.000618866 -0.000176166 0.000743642)
(0.000700088 -0.000159211 0.000883991)
(0.000798963 -0.000248445 0.000945568)
(0.000615786 -0.000242142 0.000693703)
(0.000733246 -0.000347854 0.000627411)
(0.000742902 -0.000195997 0.000835109)
(0.000615174 -0.0001778 0.000419726)
(0.000512637 -0.000173804 0.000445736)
(0.000599965 -0.000190156 0.000453508)
(0.000583209 -9.48494e-05 0.000594892)
(0.000639755 -0.000173461 0.000596449)
(0.000640287 -0.000213441 0.000413986)
(0.000590131 -0.000203491 0.00036536)
(0.000656948 -0.000213331 0.000257734)
(0.000595244 -0.000160351 0.000351436)
(0.000687717 -0.000250585 0.000423713)
(0.000701085 -0.000294818 0.000294737)
(0.000683433 -0.000243159 0.000395195)
(0.000711031 -0.000262585 0.00059848)
(-4.41895e-05 -1.70996e-05 0.000158716)
(0.000683116 -0.000309261 0.000442854)
(0.000688479 -0.000231499 0.000587623)
(0.000811571 -0.000377429 0.00070236)
(0.000793481 -0.000405345 0.000477717)
(0.000743027 -0.000275227 0.000646575)
(-4.74775e-05 -1.24153e-05 0.000160024)
(0.000772864 -0.000362652 0.000480438)
(0.000811997 -0.000376069 0.000349711)
(-3.59806e-05 -3.43431e-05 0.000183114)
(0.000707702 -0.000273103 0.000453615)
(0.000638571 -0.000212985 0.000266048)
(-4.00296e-05 -2.70615e-05 0.000186361)
(0.000648842 -0.000190718 0.00022543)
(0.000633177 -0.000205298 0.000232866)
(-3.42702e-05 -3.41725e-05 0.000168426)
(0.00070592 -0.000202068 0.000178355)
(-3.74193e-05 -1.67284e-05 0.000169778)
(-4.07071e-05 -2.86417e-05 0.000183216)
(0.000727025 -0.000322387 0.000249143)
(0.000678154 -0.000242551 0.00022274)
(-4.18614e-05 -2.72223e-05 0.000182873)
(0.000673594 -0.000246942 0.000279829)
(0.000407532 -0.000245265 0.000220869)
(-4.53941e-05 -1.98051e-05 0.000178167)
(0.000470241 -0.000293709 0.000177522)
(0.000375977 -0.000237384 0.000174889)
(-4.4417e-05 -2.04529e-05 0.00018229)
(0.000275908 -0.000179861 0.000182255)
(0.000344233 -0.000230839 0.000182755)
(-4.83063e-05 -1.30756e-05 0.000190991)
(0.000249215 -0.000171845 0.000149905)
(0.000302286 -0.000175779 0.000229284)
(-3.71498e-05 -1.96322e-05 0.000164325)
(-3.36624e-05 -1.7416e-05 0.000151568)
(0.000347664 -0.000215905 0.000177149)
(-3.92872e-05 -2.38027e-05 0.00015403)
(-4.11421e-05 -1.82307e-05 0.000168306)
(0.000172442 -0.000107092 0.000150934)
(-3.9596e-05 -1.58567e-05 0.000152896)
(-4.35135e-05 -1.32411e-05 0.000166689)
(0.000232519 -0.000155058 0.00017073)
(-4.21107e-05 -1.26327e-05 0.000151062)
(0.000158218 -0.000101332 0.000132002)
(8.71516e-05 -4.38254e-05 0.000100745)
(0.000146367 -8.20052e-05 0.000151653)
(0.000102399 -4.3361e-05 0.000120993)
(7.06887e-05 -3.01254e-05 8.88582e-05)
(0.000115512 -5.22599e-05 0.000129693)
(8.16985e-05 -4.89302e-05 8.46637e-05)
(0.000174165 -9.27013e-05 0.000172494)
(0.000213115 -0.000122241 0.000169421)
(0.00022636 -0.000191509 8.65508e-05)
(0.00036291 -0.000267618 0.000117452)
(0.000256737 -0.000176366 0.000141877)
(0.000100415 -7.69052e-05 6.90922e-05)
(0.000216708 -0.000172754 0.000104782)
(0.00015625 -0.000107963 0.000117519)
(0.000113342 -7.62704e-05 0.000105018)
(0.000155556 -9.8886e-05 0.000135705)