/*--------------------------------*- C++ -*----------------------------------*\
  =========                 |
  \\      /  F ield         | OpenFOAM: The Open Source CFD Toolbox
   \\    /   O peration     | Website:  https://openfoam.org
    \\  /    A nd           | Version:  7
     \\/     M anipulation  |
\*---------------------------------------------------------------------------*/
FoamFile
{
    version     2.0;
    format      ascii;
    class       volScalarField;
    location    "5";
    object      p;
}
// * * * * * * * * * * * * * * * * * * * * * * * * * * * * * * * * * * * * * //

dimensions      [0 2 -2 0 0 0 0];

internalField   nonuniform List<scalar> 
382612
(
0.00211176
0.00191765
0.00202769
0.00203191
0.0017988
0.00225939
0.00215198
0.00202213
0.00184203
0.00174061
0.00189318
0.0018805
0.00186898
0.00190028
0.00197087
0.00211186
0.0019161
0.0020566
0.00205346
0.00207691
0.00209996
0.00213022
0.00216051
0.00219542
0.00217346
0.00214676
0.0021222
0.00258881
0.00263862
0.00268025
0.00271473
0.00250179
0.00249337
0.00248252
0.00246407
0.00236621
0.00202785
0.00208898
0.00216058
0.00219726
0.00222871
0.00225695
0.00218979
0.00217089
0.00214631
0.0021165
0.00203045
0.00204687
0.00207033
0.00208989
0.00223751
0.00221622
0.00219159
0.00216543
0.00212657
0.00199145
0.0020257
0.00208565
0.00215671
0.00206451
0.00214618
0.00206563
0.00209045
0.00266168
0.00212024
0.00193691
0.0022461
0.00244104
0.00254431
0.00269702
0.00271784
0.00272147
0.00272357
0.00291366
0.00290266
0.00288792
0.00286
0.00274255
0.0025098
0.00262974
0.00267633
0.00270714
0.00272877
0.00308254
0.00308911
0.00309565
0.00307227
0.00288375
0.00221588
0.00236733
0.00240536
0.00242419
0.00243672
0.00261357
0.00262761
0.00264417
0.00263729
0.00252424
0.00206976
0.00212076
0.00215847
0.00217764
0.00219812
0.00222125
0.00209957
0.00208982
0.00207888
0.00207372
0.00188835
0.00192046
0.00194583
0.00196482
0.00221145
0.00218594
0.00215836
0.00213143
0.00208841
0.00176956
0.00185924
0.00189471
0.00191438
0.00192729
0.00209589
0.00206935
0.00204173
0.00201282
0.0019342
0.00168497
0.0018543
0.00202075
0.00205057
0.00206325
0.00206874
0.00228448
0.00229208
0.00230276
0.00231103
0.00240701
0.0023792
0.00226873
0.00224068
0.00222178
0.00220818
0.00190349
0.00189143
0.00187692
0.00186467
0.00200967
0.00203023
0.00204654
0.00205816
0.0020625
0.00205289
0.00204062
0.00203115
0.00206885
0.00198144
0.00191702
0.00191832
0.00192754
0.00193477
0.00186077
0.00201468
0.00204323
0.00172977
0.00184805
0.00182194
0.00212404
0.00234315
0.00174898
0.00177797
0.00209857
0.0017405
0.00180688
0.00178504
0.00173377
0.00173402
0.00174384
0.00174953
0.00230152
0.00231317
0.00233167
0.00235113
0.00232491
0.00189741
0.00186786
0.00186095
0.00186306
0.00186646
0.0022464
0.00226337
0.00229003
0.00232024
0.00233958
0.0020002
0.0021433
0.00215893
0.002159
0.00215466
0.00215222
0.00192798
0.00192882
0.00193213
0.0019446
0.00158875
0.00159556
0.00160514
0.00160923
0.00200129
0.0019993
0.00199622
0.00199569
0.00203121
0.00160499
0.00159597
0.00202353
0.00192361
0.00156506
0.00179972
0.00197944
0.00166734
0.00196543
0.00194035
0.00166385
0.00151834
0.00186273
0.00191575
0.00177979
0.00157424
0.00180219
0.00194632
0.00200568
0.00202346
0.0019831
0.00185321
0.00172843
0.00203574
0.00193897
0.00200551
0.0020656
0.00199559
0.00201625
0.00213965
0.00214373
0.00194232
0.00195693
0.0020002
0.00201264
0.00202897
0.0020466
0.0022312
0.00222713
0.00221643
0.00217307
0.00246551
0.00244182
0.00242312
0.00240564
0.00287661
0.00286512
0.00285391
0.00282601
0.00267395
0.00255853
0.00248448
0.00250276
0.00251858
0.00252372
0.00253085
0.00217581
0.00217705
0.00217067
0.00215509
0.00216562
0.00267034
0.00263841
0.00264443
0.00265555
0.00266492
0.00250146
0.00248649
0.00246274
0.00244368
0.00246374
0.00272452
0.00268419
0.00268485
0.00269996
0.00271242
0.00294502
0.00294471
0.00294323
0.00293098
0.00284761
0.00275385
0.00289391
0.00292837
0.00294369
0.0029527
0.0034069
0.00341244
0.00341915
0.00339475
0.00318488
0.00236728
0.00240944
0.00242797
0.00245234
0.00247255
0.00253535
0.00252577
0.00251275
0.00248652
0.00236474
0.00214318
0.00223838
0.00227703
0.00230517
0.00232412
0.00268491
0.00270039
0.00272463
0.00273015
0.00261104
0.00184361
0.00186012
0.00187053
0.00189133
0.00191075
0.00205219
0.0020719
0.00208827
0.0021041
0.00211479
0.00198598
0.00196766
0.00194443
0.00192848
0.00190016
0.00247473
0.00250919
0.0024924
0.00246474
0.00244439
0.001822
0.0018101
0.00179552
0.00179227
0.00181534
0.0023679
0.00232925
0.00229801
0.00227004
0.00225167
0.00168954
0.00168553
0.00168107
0.00169414
0.00178467
0.00193169
0.00187175
0.00186528
0.00187295
0.00188057
0.00216481
0.00218095
0.00220454
0.00223461
0.00229012
0.00185553
0.00176151
0.00174963
0.00175609
0.00176184
0.00215457
0.00216725
0.00218574
0.00220617
0.00221508
0.00197598
0.00204482
0.00204906
0.00205034
0.002047
0.00204377
0.0019258
0.00192578
0.00192639
0.00193286
0.00174156
0.00173985
0.00174196
0.00174271
0.00197252
0.00197535
0.00197748
0.00197923
0.00198891
0.00175877
0.00200043
0.00194191
0.00192989
0.00192782
0.00192622
0.00185464
0.00201088
0.00214262
0.00208318
0.00206329
0.00205263
0.00204542
0.00192772
0.0019291
0.00193005
0.00192925
0.00202616
0.00202277
0.00201779
0.00201379
0.00203497
0.00203731
0.00204048
0.00204274
0.00197831
0.0019807
0.00198335
0.00198442
0.00213579
0.00214165
0.00214859
0.00215649
0.002189
0.00199022
0.00204816
0.00208657
0.00210574
0.00188016
0.00201177
0.00198745
0.00181156
0.0017157
0.00195408
0.00195761
0.00172938
0.00212996
0.00211725
0.0020756
0.00207282
0.00193255
0.00203054
0.00199043
0.00205885
0.00204316
0.00215311
0.0021773
0.0021312
0.00212142
0.00212071
0.00212153
0.00216413
0.00216139
0.00215766
0.00215659
0.00217182
0.00227343
0.00226647
0.00226095
0.00225932
0.00226016
0.00221073
0.00221317
0.00221696
0.00222318
0.00224473
0.00208348
0.00205683
0.00205626
0.00205517
0.00205198
0.00204949
0.00207817
0.00207483
0.00207035
0.00206822
0.00199401
0.00199694
0.00199967
0.0020012
0.00201883
0.00202123
0.0020242
0.00202621
0.00203141
0.00199179
0.00217084
0.00214279
0.00213899
0.00213629
0.00213341
0.00214343
0.00220318
0.00216028
0.00213824
0.00214103
0.00214739
0.00215177
0.00232212
0.00232219
0.00232086
0.00231491
0.00230244
0.00235882
0.00237057
0.00237245
0.00237332
0.0023744
0.00228275
0.00228038
0.00227759
0.00227781
0.00229645
0.00225203
0.00225312
0.0022564
0.00225669
0.00225646
0.00209562
0.00209066
0.00208443
0.00208172
0.00207021
0.00206934
0.00206577
0.00206275
0.00209667
0.002098
0.00209933
0.00209897
0.00212835
0.00212828
0.0021306
0.00213204
0.0023318
0.00232397
0.00231302
0.00230035
0.00229314
0.0021411
0.0020959
0.00209865
0.00218711
0.00214625
0.00209546
0.00206451
0.00206479
0.0019137
0.00200639
0.00206089
0.00203663
0.00217216
0.00210012
0.00208223
0.00215562
0.00209138
0.00206718
0.00221776
0.00223497
0.00232456
0.00232403
0.00228388
0.00227166
0.00227402
0.00227977
0.0022839
0.00241548
0.0024108
0.00240323
0.00239283
0.00237973
0.00242233
0.00243841
0.00244452
0.00244816
0.00245013
0.00237666
0.00237509
0.00237157
0.00236565
0.00236614
0.00245807
0.00247125
0.00247895
0.00248225
0.0024841
0.00242979
0.0024195
0.0024056
0.00238889
0.00236386
0.0022344
0.00224976
0.00225031
0.00224843
0.00224682
0.0023439
0.00233327
0.00232038
0.00230346
0.00225961
0.0021647
0.00210942
0.00211923
0.00212467
0.00212546
0.0021253
0.00215136
0.00214661
0.00214107
0.0021422
0.00216283
0.00216711
0.00217171
0.00217501
0.00210746
0.00210821
0.00210911
0.00210872
0.00210397
0.00215887
0.00215868
0.00209799
0.00212315
0.00217793
0.00211934
0.00208075
0.00211546
0.00218667
0.00228899
0.00215807
0.00211643
0.00222045
0.002275
0.00213214
0.00223001
0.00245581
0.00223885
0.00211813
0.00241476
0.0024936
0.00249201
0.00246995
0.00243319
0.00239122
0.00231298
0.00232714
0.00233647
0.00234082
0.00234315
0.0024291
0.00242715
0.00242521
0.00242278
0.00241011
0.00250357
0.00252999
0.00253811
0.00254254
0.00254565
0.00251098
0.00250441
0.00249505
0.00248237
0.00246651
0.0025122
0.00254662
0.00255912
0.00256494
0.00256856
0.00258272
0.00257777
0.00257149
0.00256192
0.00253092
0.00247474
0.00248301
0.00249251
0.00250293
0.00251098
0.00255079
0.00254727
0.00254215
0.00253073
0.00249702
0.00238387
0.00239964
0.00240908
0.00241627
0.0024211
0.00226304
0.00225773
0.00225091
0.0022422
0.00222266
0.00213664
0.00210737
0.00212089
0.0021263
0.00212733
0.00212622
0.00215736
0.00215238
0.00214575
0.00214012
0.00214739
0.00215194
0.00215798
0.00216449
0.00211147
0.00210957
0.00210495
0.00209624
0.00208474
0.00214293
0.00224541
0.00225482
0.00226318
0.00227164
0.00227869
0.00223327
0.00222646
0.00221841
0.00221071
0.00219785
0.00210326
0.00207131
0.00209045
0.00209643
0.00210003
0.0021042
0.00214491
0.0021362
0.0021261
0.00211808
0.00212294
0.00212717
0.00213145
0.00213487
0.00211088
0.00210631
0.00210318
0.00209851
0.00207702
0.00211004
0.00212087
0.00206978
0.00207346
0.00210296
0.00211202
0.00205758
0.00210904
0.00217779
0.00222112
0.00211626
0.00211681
0.00216198
0.00216635
0.00209241
0.00203954
0.00200644
0.00233404
0.00216695
0.00223182
0.0023918
0.00241026
0.00221338
0.00213732
0.00223459
0.00196637
0.00199742
0.00205092
0.00209667
0.00204142
0.00204724
0.00206939
0.00209393
0.00212136
0.0020905
0.00204795
0.00196185
0.0022285
0.00219478
0.00225357
0.00224375
0.00228188
0.00224962
0.00224104
0.0022394
0.00223955
0.00223621
0.0022364
0.00223868
0.00224593
0.00225288
0.00233677
0.00234124
0.00233869
0.00233782
0.002338
0.00224379
0.00224286
0.00224036
0.00223377
0.00222252
0.0022026
0.0021841
0.00217753
0.00217658
0.00217756
0.0022816
0.00227965
0.00227815
0.00227752
0.00227244
0.00234971
0.00236598
0.00237295
0.00237836
0.00238205
0.00246025
0.0024573
0.00245059
0.00243634
0.00240971
0.00246217
0.00249648
0.00251319
0.00252109
0.00252544
0.00259514
0.00258889
0.00258125
0.00257123
0.00254471
0.00254765
0.00257898
0.00258984
0.00259599
0.00260008
0.00254877
0.00254407
0.00253826
0.00252988
0.00250568
0.00244672
0.00246086
0.00246685
0.00247179
0.00247529
0.00237805
0.00237068
0.00236148
0.00235455
0.00235169
0.00235417
0.00238334
0.00239308
0.00239675
0.00239926
0.00225844
0.00225959
0.00225922
0.00225364
0.00222609
0.00222783
0.00225268
0.00225723
0.00225548
0.00225261
0.0020939
0.00208797
0.00208159
0.0020797
0.00208894
0.00209652
0.00210144
0.00210581
0.00208289
0.00207897
0.00207425
0.00206715
0.00205545
0.00208054
0.00208012
0.0020846
0.00209022
0.00209458
0.00213678
0.00213775
0.00213821
0.00213833
0.00213869
0.00211759
0.00212145
0.00212314
0.00212452
0.00212553
0.00206016
0.00205517
0.00204915
0.00204564
0.00203746
0.00204215
0.00204632
0.00205047
0.00209512
0.00209123
0.00208877
0.00208644
0.00207979
0.00207767
0.00208064
0.00208426
0.00214482
0.0021486
0.00215325
0.00215696
0.00215864
0.00209197
0.00208152
0.00206398
0.00206163
0.00195969
0.00199527
0.00210414
0.00210881
0.00208933
0.00206877
0.00210971
0.00217725
0.00191086
0.00200359
0.00201561
0.00190204
0.00197614
0.00199921
0.00207855
0.00210277
0.00216506
0.00209376
0.00210646
0.00220494
0.00219737
0.00209177
0.00207039
0.00207728
0.00228165
0.00218235
0.00211444
0.00222246
0.00222302
0.00252451
0.0027593
0.00287962
0.00288376
0.0027716
0.00256163
0.00231142
0.00205354
0.00182112
0.00168951
0.00171491
0.00172411
0.00172227
0.00171825
0.00187299
0.0018684
0.00186399
0.00186391
0.00186831
0.00204872
0.0020996
0.00211437
0.00211412
0.00211119
0.00221114
0.00220574
0.00219957
0.00219535
0.00218422
0.00219142
0.00222792
0.00223356
0.0022373
0.00224098
0.00234423
0.00234211
0.00233632
0.00231802
0.00224907
0.0023958
0.00241523
0.00242377
0.00243271
0.00244029
0.0024405
0.00243658
0.00243028
0.00241582
0.00236135
0.00231736
0.00235605
0.00236913
0.00237523
0.00237828
0.00246667
0.00245976
0.00245161
0.00244427
0.00243057
0.00243441
0.0024531
0.00246497
0.00247356
0.00247925
0.00248608
0.00248355
0.00247847
0.00246706
0.00244159
0.00239401
0.00242272
0.00243237
0.00243536
0.00243631
0.00230451
0.00230033
0.00229523
0.00229177
0.00228864
0.00231904
0.00232185
0.00232105
0.00232043
0.0023204
0.00221181
0.00220499
0.00219772
0.0021971
0.00221947
0.00220759
0.00220378
0.00220683
0.00221051
0.00221298
0.00220265
0.00220599
0.00221099
0.00221648
0.0022164
0.00214667
0.00213582
0.00213746
0.00214002
0.00214164
0.00207238
0.00207074
0.00206817
0.00206749
0.00208276
0.00205996
0.00205384
0.00205456
0.0020556
0.00205555
0.00207633
0.00207319
0.00206923
0.00206698
0.00207413
0.00200956
0.0020131
0.00201707
0.00202481
0.00203233
0.0020387
0.00203503
0.00202863
0.00201952
0.00201056
0.00203696
0.00203785
0.00204054
0.00204275
0.00205258
0.00205067
0.00204882
0.00204515
0.00203847
0.00204619
0.00208007
0.00208105
0.00208001
0.00205579
0.00197788
0.00203774
0.00201723
0.00194633
0.00208612
0.00206567
0.00191543
0.00174875
0.0018272
0.00196847
0.00189971
0.00173996
0.00185155
0.00190689
0.00195122
0.00194644
0.00200642
0.00200412
0.00201129
0.001972
0.00174286
0.00190482
0.00189413
0.0017208
0.00167122
0.00182696
0.00198493
0.00222015
0.00243045
0.00256486
0.00258561
0.00247013
0.00225532
0.00198106
0.00168597
0.00142507
0.001321
0.00136774
0.00137475
0.00136992
0.0013641
0.00146644
0.00146077
0.00145522
0.00145305
0.00145038
0.00175988
0.00181555
0.00182765
0.00182416
0.00181813
0.00194603
0.0019388
0.00193082
0.00192523
0.00191557
0.00210441
0.00212444
0.00213304
0.00214004
0.0021452
0.00211662
0.00210881
0.00209971
0.0020932
0.00207991
0.00223203
0.00224064
0.00224676
0.00225414
0.00226019
0.00217631
0.00217111
0.00216639
0.00216599
0.00216137
0.00225413
0.00223972
0.00223531
0.0022379
0.00224128
0.00227932
0.00227684
0.00227262
0.00226742
0.00226674
0.0023652
0.002372
0.00237266
0.00237509
0.00237842
0.0023411
0.00233935
0.00233793
0.00234018
0.0023521
0.00228013
0.00228373
0.00227981
0.00227861
0.00227873
0.00224375
0.00224377
0.00224535
0.00225225
0.00226621
0.00219193
0.00218218
0.00218273
0.00218675
0.00219023
0.00229645
0.00229642
0.00229572
0.00229098
0.00227228
0.00230417
0.00228405
0.00233575
0.00233998
0.00227141
0.00228942
0.00229655
0.00229823
0.00229771
0.00218396
0.00218142
0.00217874
0.00218051
0.00219838
0.0021715
0.00217132
0.00217438
0.00217479
0.00217433
0.00214495
0.00214431
0.00214287
0.00214039
0.00214659
0.00211593
0.00211923
0.00212028
0.00212018
0.0021199
0.00203605
0.00203545
0.00203514
0.00203928
0.00206424
0.00218582
0.00217737
0.00216485
0.00215611
0.00215132
0.0021027
0.00210572
0.00211186
0.00212666
0.00217399
0.00206843
0.00206867
0.00206013
0.00205745
0.00205593
0.00205633
0.0020241
0.00202531
0.00202805
0.00203823
0.00197466
0.00198306
0.00198788
0.00199086
0.00208308
0.0020814
0.00207925
0.00207198
0.00205233
0.00196067
0.00202825
0.00211747
0.00202591
0.00196235
0.00197227
0.00212077
0.00200303
0.00198945
0.00201262
0.00202081
0.0020217
0.00202068
0.00192548
0.00192511
0.00192375
0.00192375
0.00193848
0.0019717
0.00199869
0.00200029
0.00199718
0.00199383
0.00202061
0.00202741
0.00203386
0.00203126
0.0019902
0.00197068
0.00200196
0.00201753
0.00202179
0.0020244
0.00202819
0.0020043
0.00200748
0.00200921
0.00200372
0.00195804
0.00196326
0.00197083
0.00197599
0.00205057
0.00204621
0.0020408
0.00203236
0.00202179
0.00197802
0.00207783
0.00206146
0.00203353
0.00197856
0.00181614
0.00196035
0.00192587
0.00172393
0.001692
0.00187841
0.00181436
0.00160404
0.00181468
0.00188773
0.00196201
0.00200975
0.00185363
0.0018705
0.00191763
0.00189892
0.00187842
0.00194358
0.00200332
0.00195564
0.00206016
0.00204835
0.00201537
0.00199022
0.00184254
0.00197903
0.00196383
0.00182799
0.00211287
0.00209659
0.0020487
0.00208004
0.00199759
0.00201087
0.00197669
0.00199074
0.00163627
0.00183234
0.0018549
0.00158677
0.00160892
0.00184853
0.00191808
0.00189713
0.00177125
0.00189894
0.00184134
0.00167088
0.00171129
0.00186682
0.00191248
0.00167908
0.00165945
0.00189459
0.00189337
0.00162008
0.00167028
0.00190509
0.00194924
0.0017566
0.00165334
0.001926
0.00191536
0.00161535
0.00180473
0.00180525
0.00176282
0.00173948
0.00166087
0.00165124
0.00165393
0.00165488
0.00185757
0.00185716
0.00185702
0.00186611
0.00192544
0.00219942
0.00212976
0.00210632
0.00209361
0.00208651
0.00185541
0.00185119
0.00184691
0.00185747
0.00194158
0.00216768
0.00213572
0.00211698
0.00210681
0.00210158
0.00203056
0.00202443
0.00201828
0.00202367
0.00208732
0.00198364
0.00194267
0.00181344
0.0017912
0.00173615
0.00172785
0.00172906
0.00172927
0.00192753
0.0019293
0.00193009
0.00193114
0.00195803
0.00217217
0.0021283
0.00211083
0.0021047
0.00210254
0.00199238
0.00198872
0.00198452
0.00198931
0.00204021
0.00221165
0.00220049
0.00218933
0.00218346
0.00218047
0.00207169
0.00207023
0.00206903
0.00207591
0.00212818
0.00209347
0.00206859
0.00198271
0.00195312
0.0018948
0.00184996
0.0018447
0.00184663
0.00184851
0.00205082
0.00205298
0.00205875
0.00207297
0.0020891
0.00215689
0.00214072
0.00212924
0.00212549
0.00212495
0.00211168
0.00210974
0.00210693
0.00210624
0.00212234
0.00215101
0.0021387
0.00213949
0.00214013
0.00214006
0.00217377
0.00229364
0.0022573
0.00215921
0.00199928
0.0019103
0.00190995
0.00191391
0.00191404
0.0019126
0.0020845
0.00208245
0.0020844
0.00209567
0.00211079
0.00213379
0.00213208
0.00213029
0.00213319
0.00213727
0.00200908
0.0020124
0.00201312
0.00200342
0.00197772
0.00184594
0.00181925
0.00181196
0.00181353
0.00181645
0.00164642
0.0016505
0.00165337
0.00164797
0.00163732
0.0014588
0.00143862
0.00142775
0.00142515
0.0014253
0.00143254
0.00143101
0.00143049
0.00143591
0.00145435
0.00120264
0.00118921
0.00118585
0.00118815
0.0011915
0.00117983
0.00118051
0.00118375
0.00119061
0.00119864
0.00104727
0.00102335
0.0010228
0.00102475
0.00102659
0.000995993
0.000989617
0.000984905
0.000986326
0.00100983
0.0013167
0.00134747
0.00135269
0.00134711
0.00133998
0.00143795
0.00143098
0.00142339
0.00142153
0.00143393
0.00165994
0.00166754
0.00167403
0.00168141
0.00168795
0.00194621
0.00195025
0.00195291
0.00194218
0.00188189
0.00199087
0.00203264
0.00204277
0.00204476
0.00204601
0.00194908
0.00195143
0.00195186
0.0019445
0.00193143
0.00202631
0.00202009
0.00202377
0.00202677
0.00202936
0.00213855
0.00213967
0.00213994
0.00213414
0.0021169
0.0020664
0.00205152
0.00205075
0.00205149
0.00205116
0.00222945
0.00222858
0.00223118
0.00223812
0.00224596
0.0020629
0.00204834
0.00204916
0.00205115
0.00205185
0.00208673
0.00208761
0.00208881
0.00208815
0.00208318
0.00204634
0.00202146
0.00201726
0.0020173
0.00201774
0.00214438
0.00214771
0.00215517
0.00216967
0.00218321
0.00218381
0.00214951
0.00213754
0.00213348
0.00213207
0.00196347
0.00196148
0.00195838
0.00195625
0.00197071
0.00196191
0.00194686
0.00194733
0.00194877
0.00194934
0.00213526
0.00214379
0.00215921
0.00218292
0.00219782
0.00223125
0.00223295
0.00221318
0.00219798
0.00218909
0.00218485
0.00218768
0.0021947
0.0022089
0.00222026
0.00227416
0.00225373
0.00225124
0.00225017
0.00225131
0.00206253
0.00205953
0.0020555
0.00205404
0.0020631
0.00193484
0.00194115
0.00197467
0.00198815
0.00200018
0.00200975
0.00204721
0.00204631
0.00204345
0.00202467
0.00212503
0.00212341
0.00212231
0.00212244
0.00209642
0.00209089
0.00208725
0.00208763
0.00210578
0.00211805
0.00204234
0.00207896
0.00199215
0.00191338
0.00214963
0.00207632
0.0020117
0.00194818
0.00181064
0.00192585
0.00190675
0.00181201
0.00185643
0.00185532
0.00194016
0.00195863
0.00191702
0.00195728
0.00197401
0.00191171
0.00182156
0.00193614
0.00193137
0.00181537
0.00184047
0.00191275
0.00187203
0.00182651
0.00190677
0.00165162
0.00149574
0.00136871
0.00130913
0.00130779
0.00133151
0.00134605
0.00133458
0.00129221
0.00120008
0.00106836
0.000925695
0.000797953
0.000673804
0.000740906
0.000731915
0.000732502
0.00073574
0.000738333
0.000940456
0.000952187
0.000965025
0.000969986
0.000951217
0.000981921
0.000983018
0.000980697
0.000976527
0.000972743
0.00098204
0.000992896
0.00100373
0.00100622
0.00099673
0.00119915
0.00116156
0.00115626
0.00116204
0.00116921
0.00138057
0.00138977
0.00139802
0.001394
0.00137002
0.00159922
0.00158589
0.00158222
0.00158654
0.00159074
0.00181681
0.00181244
0.00180989
0.00181446
0.00183334
0.00170787
0.00172219
0.00172452
0.0017226
0.00171974
0.00165526
0.00166021
0.00166338
0.00166363
0.00167978
0.00197445
0.00195223
0.00193923
0.00193844
0.0019411
0.00202051
0.00201975
0.00202243
0.00203715
0.00208343
0.00186206
0.00186591
0.00186647
0.00186499
0.00186342
0.00183699
0.00183879
0.00184116
0.00184579
0.00186786
0.00208228
0.00207459
0.00205882
0.00205127
0.0020489
0.00204225
0.00204357
0.00204858
0.00206447
0.00210961
0.0018618
0.00185362
0.00185409
0.00185533
0.00185522
0.00190821
0.00190915
0.00191019
0.00191048
0.0019106
0.0019419
0.00191325
0.00190642
0.00190409
0.0019028
0.00211046
0.00211914
0.00213396
0.00215336
0.00215497
0.00186251
0.00186249
0.00186728
0.00186945
0.00187018
0.00188701
0.00188469
0.00187866
0.00186631
0.00185555
0.00184801
0.0018591
0.00187433
0.00188474
0.00189033
0.00196134
0.00195528
0.00194485
0.00192626
0.00189776
0.00179083
0.0018287
0.00184961
0.00186019
0.00186545
0.00209095
0.00208621
0.00207848
0.00205857
0.00199348
0.00216778
0.00218947
0.00218588
0.00218168
0.00218009
0.00207039
0.00207572
0.00208066
0.0020762
0.00200984
0.00201545
0.00202477
0.00203333
0.00208132
0.00206914
0.00205537
0.00204361
0.00204589
0.0020577
0.00205866
0.00205734
0.00228156
0.00227955
0.00227804
0.00226656
0.00218091
0.00197438
0.00204184
0.00205046
0.00190557
0.00186816
0.00204832
0.002038
0.00186689
0.00191618
0.00208201
0.00210975
0.00212022
0.00212415
0.00212855
0.00199638
0.00198727
0.00197183
0.00195384
0.0022024
0.00222057
0.00221852
0.00221719
0.00209266
0.00208857
0.00208172
0.00206804
0.00204996
0.00223996
0.00221803
0.00221416
0.0022061
0.00220146
0.0022188
0.00221576
0.00221249
0.00220629
0.00228154
0.00199806
0.00203605
0.00203301
0.00203598
0.00204174
0.00204678
0.00211006
0.00211323
0.00211558
0.00210316
0.00202258
0.00204602
0.0020536
0.00205903
0.00202281
0.00201682
0.00200987
0.00200144
0.00197279
0.00186926
0.00182247
0.00203487
0.00199754
0.00199502
0.00198241
0.00193568
0.00192558
0.00190295
0.00207065
0.00199679
0.0019134
0.00193481
0.00197731
0.00190719
0.00196115
0.00192821
0.00188825
0.00165097
0.0013476
0.00104704
0.000835053
0.000746445
0.000779843
0.000870974
0.000938435
0.000929871
0.000846671
0.000725922
0.000640849
0.000551084
0.000500598
0.000429419
0.000466407
0.000452863
0.000444518
0.0004357
0.000428422
0.000499407
0.000499663
0.00050273
0.000513498
0.000551316
0.000619034
0.000611097
0.000603838
0.000592903
0.000582231
0.000721912
0.000722675
0.000726414
0.000740758
0.000772964
0.000997795
0.000954132
0.000935135
0.000928065
0.00092511
0.00106396
0.00107254
0.00107964
0.00108086
0.00108876
0.00140952
0.00136633
0.00135028
0.0013494
0.00135303
0.00156279
0.00156393
0.00156898
0.00158797
0.00164413
0.00144326
0.0014424
0.00144028
0.00143735
0.00143552
0.00143005
0.00143504
0.00143932
0.00144408
0.00147131
0.00180621
0.00178154
0.00176067
0.00175156
0.00174936
0.00182908
0.00183083
0.00183685
0.00185667
0.00191666
0.00160581
0.00161116
0.00161149
0.00161026
0.00160865
0.00165881
0.00166163
0.00166513
0.00167118
0.00169365
0.00194056
0.00193257
0.00191289
0.00190007
0.00189434
0.00191984
0.00192563
0.00193823
0.00196112
0.00198086
0.00206135
0.00202371
0.00200333
0.00199306
0.00198845
0.00170648
0.00170554
0.00170034
0.00168931
0.0016857
0.0017456
0.00174891
0.00175794
0.00176358
0.00176563
0.00185815
0.00185588
0.00185286
0.00184987
0.00184312
0.00192379
0.00194289
0.00194652
0.00194721
0.0019475
0.00204482
0.00204459
0.00204378
0.00203896
0.00201318
0.00198124
0.00200196
0.00200637
0.00200752
0.00200737
0.00201876
0.00201119
0.00199819
0.00197595
0.00193785
0.0019884
0.00198988
0.00199866
0.00200612
0.00201065
0.00215976
0.00216569
0.00217457
0.00217845
0.00213674
0.00203839
0.00211419
0.00212019
0.00211659
0.00211337
0.0020453
0.00204278
0.00203861
0.00203146
0.00199127
0.00210903
0.00210604
0.00210123
0.00209839
0.00209944
0.00206023
0.00190965
0.00199329
0.00194211
0.00197992
0.00217388
0.00178782
0.00194748
0.00223272
0.00182164
0.00211103
0.00284669
0.00196968
0.00215658
0.00217849
0.00250718
0.00197996
0.00166208
0.00121419
0.000839529
0.000578967
0.000510001
0.000577055
0.000688405
0.000752222
0.000715682
0.000609988
0.000497229
0.000409839
0.000375251
0.000336881
0.000426571
0.000430105
0.000425981
0.000421523
0.000418579
0.000346063
0.000352838
0.00035816
0.000360628
0.000369093
0.000587482
0.000572402
0.000554375
0.000541762
0.000534483
0.000759737
0.000768613
0.000780963
0.000795615
0.000822261
0.000792407
0.000768522
0.000763975
0.000758366
0.000752022
0.00111563
0.00112417
0.00114108
0.00117061
0.0012099
0.00140078
0.00135201
0.00133308
0.00132163
0.0013145
0.00128827
0.00129259
0.00129716
0.00130323
0.00133183
0.00169283
0.00166201
0.00163548
0.00162105
0.00161464
0.00170671
0.00171155
0.00172053
0.00173687
0.00177022
0.00141204
0.00139547
0.00139755
0.00140129
0.0014034
0.00152866
0.00152887
0.00152925
0.00153056
0.00154301
0.00162071
0.00162173
0.00161976
0.00161658
0.00161403
0.0017032
0.001711
0.00171976
0.00172006
0.00168952
0.00173513
0.00176395
0.00176014
0.00174895
0.00173837
0.00193967
0.00194745
0.00195918
0.0019639
0.00192019
0.0019165
0.00193662
0.00193865
0.00193936
0.00193943
0.00194084
0.00193958
0.00193568
0.00192716
0.00189229
0.00201364
0.00205089
0.00206121
0.00206651
0.0020699
0.00213392
0.00213529
0.0021367
0.00213312
0.00209644
0.00212552
0.0021369
0.00214068
0.0021454
0.00214918
0.00225664
0.00226371
0.00227409
0.00227352
0.00220103
0.00200768
0.00196623
0.0019739
0.00199249
0.00200594
0.00226003
0.0022566
0.00225174
0.00224534
0.00221749
0.00216302
0.00214135
0.00213963
0.00214282
0.00214499
0.00216408
0.00217086
0.00217941
0.00217689
0.00211943
0.00196823
0.00206708
0.00207274
0.00206413
0.00205626
0.00217115
0.00217865
0.00219152
0.0021903
0.00207574
0.00186388
0.00188398
0.00189417
0.00190052
0.00190396
0.00205833
0.00206319
0.00206686
0.00205961
0.00202367
0.00202118
0.00192145
0.00189804
0.00202787
0.00203975
0.00189256
0.00194375
0.00195174
0.00195352
0.00195337
0.00203712
0.00203991
0.00204293
0.00204359
0.00200265
0.00194026
0.00194935
0.00194825
0.00192522
0.00188853
0.00192163
0.00195598
0.00195591
0.00186572
0.0019167
0.0019841
0.00197073
0.00196545
0.00219867
0.00207036
0.00202018
0.00206792
0.00201843
0.00199804
0.00194993
0.00185964
0.00188375
0.00196517
0.00200161
0.00198754
0.00206282
0.00203893
0.00202528
0.002035
0.00202257
0.00200356
0.00205961
0.00213676
0.00207291
0.00202541
0.00198401
0.00195661
0.00193289
0.00198934
0.00201734
0.0020164
0.00199231
0.00200023
0.00200023
0.001959
0.00193945
0.00197747
0.00195033
0.00191778
0.00184793
0.00192794
0.0019227
0.00181508
0.00185082
0.00195711
0.00189767
0.00183506
0.00187561
0.00191287
0.00195445
0.00197152
0.00197117
0.00194708
0.00192629
0.001957
0.00199635
0.00192973
0.0019499
0.00199254
0.00196576
0.00195809
0.00194628
0.00197758
0.00212509
0.00197556
0.00197734
0.00208533
0.00192391
0.00191034
0.0017482
0.00152283
0.00121705
0.000906968
0.000776467
0.000812284
0.00113346
0.00127623
0.00158199
0.00174122
0.00176871
0.00178222
0.00179209
0.00208584
0.00210139
0.00211836
0.00212457
0.00208123
0.00150007
0.00156854
0.00157922
0.00157915
0.00157505
0.00220707
0.00222838
0.00225503
0.00226619
0.00223006
0.00160535
0.00157449
0.00157208
0.00157482
0.00157488
0.00225169
0.00227377
0.00230582
0.00233616
0.00230695
0.00229052
0.00238378
0.00239132
0.00237984
0.00236813
0.00170949
0.00171171
0.00170939
0.00170019
0.00166431
0.00154756
0.00160512
0.00160507
0.00160239
0.00159998
0.00201233
0.00202249
0.00203569
0.0020528
0.00211613
0.00161121
0.00156862
0.00156598
0.00156812
0.00156673
0.00165366
0.00165541
0.00165833
0.00166707
0.00170027
0.00212134
0.00203394
0.00200546
0.0019916
0.00198284
0.0019
0.00191016
0.0019281
0.00195817
0.00198738
0.00204269
0.00195713
0.00193413
0.00192564
0.00192138
0.00188902
0.00189461
0.00190718
0.00193229
0.00197736
0.00191225
0.00185671
0.00184917
0.00185198
0.00185528
0.00163454
0.00159168
0.00158699
0.00158749
0.00158645
0.00165689
0.0016568
0.00165512
0.00165682
0.00168517
0.00198209
0.00195005
0.00192843
0.00191768
0.00191365
0.00186919
0.00186753
0.00186914
0.00188864
0.00198006
0.00194353
0.00193889
0.00194162
0.00194263
0.00194231
0.00199129
0.00199094
0.0019899
0.0019881
0.00199241
0.00204888
0.00196218
0.00182945
0.0016284
0.00154307
0.00153158
0.00153364
0.00153323
0.0015309
0.00178447
0.00178682
0.00179298
0.00181234
0.00184719
0.0018559
0.00183005
0.00181591
0.0018123
0.00181206
0.00160981
0.00161375
0.00161749
0.00161516
0.00160916
0.00147631
0.00145422
0.00143929
0.00143297
0.00143027
0.00121735
0.00121892
0.0012251
0.00124254
0.00126795
0.00122469
0.00120438
0.00119425
0.00119162
0.00119144
0.00102808
0.00103525
0.0010421
0.00104328
0.00104103
0.00108798
0.00110914
0.00110876
0.00109851
0.00108761
0.000804705
0.000803553
0.000804478
0.000812512
0.000836093
0.000878739
0.000860293
0.000858938
0.000861572
0.000863686
0.000818256
0.000819206
0.000821798
0.0008298
0.00085428
0.000844857
0.000854534
0.000848226
0.000836479
0.000826457
0.000584569
0.000583358
0.000582618
0.000586195
0.000604748
0.000624299
0.000591098
0.000585795
0.000586257
0.000587249
0.000575064
0.000577386
0.000580767
0.000587217
0.000609944
0.000650612
0.000650832
0.000643109
0.000632248
0.000623003
0.000632441
0.000631635
0.000632199
0.00063969
0.00067168
0.000817726
0.000790232
0.000782565
0.000782694
0.000783977
0.000698471
0.000611073
0.000630174
0.000607121
0.000598719
0.000593292
0.000589276
0.000516224
0.000505628
0.000551695
0.000555976
0.000552158
0.000544903
0.000538517
0.00050831
0.000506042
0.000505256
0.000510884
0.000542455
0.00048244
0.000470228
0.000466039
0.000461595
0.000457541
0.000409735
0.000410048
0.000411179
0.000415215
0.000431307
0.000361379
0.000346187
0.00034232
0.000343596
0.000345225
0.000386502
0.000388812
0.000393286
0.000404373
0.000431118
0.000463087
0.000451297
0.000445742
0.000437272
0.000429098
0.00058022
0.00058245
0.000589462
0.000607327
0.000641802
0.000856452
0.000807422
0.000786702