/*--------------------------------*- C++ -*----------------------------------*\
  =========                 |
  \\      /  F ield         | OpenFOAM: The Open Source CFD Toolbox
   \\    /   O peration     | Website:  https://openfoam.org
    \\  /    A nd           | Version:  7
     \\/     M anipulation  |
\*---------------------------------------------------------------------------*/
FoamFile
{
    version     2.0;
    format      ascii;
    class       volVectorField;
    location    "5";
    object      wallShearStress;
}
// * * * * * * * * * * * * * * * * * * * * * * * * * * * * * * * * * * * * * //

dimensions      [0 2 -2 0 0 0 0];

internalField   uniform (0 0 0);

boundaryField
{
    outlet1
    {
        type            calculated;
        value           uniform (0 0 0);
    }
    Wall
    {
        type            calculated;
        value           nonuniform List<vector> 
40276
(
(0.000389478 5.05617e-05 0.000175471)
(-0.00018674 -8.27778e-06 0.000415587)
(-0.000190415 -7.5609e-06 0.000407455)
(0.000123436 -6.82656e-05 0.000154297)
(9.88704e-05 -3.24131e-05 0.000143135)
(8.16254e-05 1.53237e-05 0.000145909)
(8.75564e-05 3.91586e-05 0.000155408)
(0.000132492 3.82619e-05 0.000183842)
(0.000107017 2.89931e-05 0.000171608)
(9.94968e-05 2.58377e-05 0.000166976)
(0.000410151 4.16308e-05 0.000437497)
(0.00049578 1.84618e-05 0.000476117)
(0.000584068 4.23716e-05 0.000938269)
(0.000562658 4.40415e-05 0.000870129)
(0.00044588 -1.00492e-05 0.000316801)
(0.000400538 7.42871e-06 0.000348413)
(0.000379126 2.69322e-05 8.25049e-05)
(0.000343212 2.68462e-05 4.11626e-05)
(-7.72087e-05 -3.1842e-05 -0.000116152)
(-8.22018e-05 -5.95993e-05 -0.000128307)
(-0.000146369 3.71219e-05 0.000211465)
(-0.00017705 4.20246e-05 0.000198608)
(-0.000117179 3.15852e-05 6.79413e-05)
(-0.000135853 2.91011e-05 6.43072e-05)
(-9.87866e-05 2.34345e-05 4.34589e-05)
(-0.000111033 2.44897e-05 3.77197e-05)
(-0.000116826 3.95599e-05 1.96003e-05)
(-0.000114766 3.99774e-05 1.42153e-05)
(-0.00017656 5.69177e-05 3.23934e-05)
(-0.000157311 4.84958e-05 2.35786e-05)
(-0.000124951 4.09178e-05 7.68291e-05)
(-0.000140514 4.92016e-05 8.48062e-05)
(-5.25725e-05 -3.16034e-06 0.000159679)
(-4.68152e-05 -4.84848e-06 0.000148408)
(-5.84369e-05 1.01011e-05 7.56253e-06)
(-5.75686e-05 1.14274e-05 7.18134e-06)
(0.000576071 6.19259e-05 0.000187542)
(0.000624797 4.05774e-05 0.000200434)
(0.00108669 0.000260485 0.000357274)
(0.00123927 0.000339865 0.00038045)
(0.000995895 5.59061e-05 0.00012105)
(0.000946483 2.63879e-05 0.00014722)
(-4.52173e-05 -1.43761e-05 -0.000393031)
(-2.44161e-05 -1.12129e-05 -0.00036092)
(-4.82229e-05 -1.79062e-06 -0.000361762)
(-4.20498e-05 -6.29237e-06 -0.000302479)
(-7.12048e-05 -2.64668e-08 -0.000310688)
(-5.51325e-05 -3.21771e-06 -0.000255079)
(-6.56918e-05 -7.00288e-07 -0.000224069)
(-6.50324e-05 1.34085e-06 -0.000190484)
(-5.43464e-05 -1.34776e-06 -0.000160395)
(-6.70636e-05 1.71443e-06 -0.000167835)
(-5.93299e-05 -2.74483e-07 -0.000137832)
(-6.24725e-05 2.7133e-06 -0.000139184)
(0.000437589 7.78214e-05 0.000247121)
(0.00045577 9.16979e-05 0.000216031)
(-2.38706e-05 1.5911e-05 0.000143494)
(6.40246e-05 2.20086e-05 0.000190795)
(-1.72243e-05 1.12101e-05 0.000146658)
(-0.000466868 -0.000108123 -0.000446694)
(-0.000493063 -8.99644e-05 -0.000454324)
(1.90333e-05 3.45242e-05 0.000291096)
(-1.27727e-05 -1.17747e-05 0.000225004)
(7.94288e-06 -6.78929e-07 -3.31516e-05)
(1.05158e-05 2.01148e-06 -2.88348e-05)
(5.54419e-06 7.45934e-08 -2.86143e-05)
(1.99513e-06 -1.77495e-06 -2.79405e-05)
(8.4767e-06 1.0492e-07 -3.07426e-05)
(-0.000114541 -1.61222e-05 -0.00010438)
(-0.000126186 -5.50561e-06 -0.000113257)
(-5.84029e-05 4.9714e-06 -0.000117481)
(-5.86894e-05 -8.38102e-08 -0.000119764)
(-2.2901e-05 1.73083e-06 -2.37972e-05)
(-2.2853e-05 1.73902e-06 -2.31131e-05)
(-2.04716e-05 1.77149e-06 -2.20869e-05)
(-1.95582e-05 2.19471e-06 -2.11796e-05)
(-2.22351e-05 1.00375e-06 -2.21652e-05)
(2.17062e-05 -1.4402e-06 -7.39255e-06)
(1.87323e-05 -1.5478e-06 -1.10549e-05)
(4.37021e-07 4.2989e-06 8.97595e-08)
(1.29308e-06 1.67814e-07 7.7179e-08)
(8.33757e-06 -4.8501e-07 -4.88534e-07)
(1.91545e-05 -1.37741e-07 1.31626e-05)
(1.83982e-05 -1.77549e-07 1.33926e-05)
(2.56989e-05 -3.33123e-06 1.8036e-05)
(5.41268e-06 4.06298e-07 -2.37355e-05)
(2.12063e-06 -1.17396e-06 -2.30453e-05)
(5.02567e-06 6.43434e-07 -1.92991e-05)
(2.33887e-05 -3.39915e-06 1.68982e-05)
(2.3476e-05 -4.02935e-06 1.70836e-05)
(2.03246e-05 -3.46334e-06 1.53241e-05)
(-4.09842e-05 -4.46854e-06 -3.70997e-05)
(1.89717e-06 -6.93231e-07 -1.88216e-05)
(4.57719e-06 7.88088e-07 -1.5644e-05)
(1.77321e-06 -3.32372e-07 -1.53939e-05)
(1.49251e-06 -1.70654e-07 -1.24679e-05)
(1.13702e-06 4.00769e-08 -1.00951e-05)
(5.68833e-07 1.07313e-07 -8.48465e-06)
(-2.28621e-06 -1.42647e-07 -6.60479e-06)
(-2.9727e-06 -5.78546e-08 -6.23637e-06)
(-3.80333e-06 -1.61077e-08 -6.27624e-06)
(-7.19409e-06 -1.63357e-07 -8.71024e-06)
(-7.57887e-06 -1.38074e-07 -9.49548e-06)
(-4.61228e-05 -7.09738e-07 -4.0483e-05)
(-7.97016e-06 -2.61904e-08 -1.06026e-05)
(-1.72184e-05 -5.28084e-06 -2.097e-05)
(-1.43222e-05 -5.23593e-06 -1.67318e-05)
(-8.02212e-06 -1.04678e-07 -1.15485e-05)
(-8.06425e-06 1.12833e-08 -1.28081e-05)
(-7.71955e-06 -4.2832e-07 -1.34037e-05)
(-8.00097e-06 1.74383e-08 -1.43981e-05)
(-7.51661e-06 -4.95013e-07 -1.53032e-05)
(-7.17429e-06 -2.25336e-07 -1.583e-05)
(-6.91096e-06 -8.71922e-07 -1.73311e-05)
(-6.74307e-06 -1.36535e-06 -1.63707e-05)
(4.02216e-06 -8.91041e-07 -2.59428e-05)
(3.7623e-06 -2.87441e-06 -2.75155e-05)
(2.16853e-06 -2.90118e-06 -2.60634e-05)
(-0.000274715 -6.28139e-05 0.000485822)
(-0.000277602 -6.12767e-05 0.000440582)
(-1.31622e-05 -1.22568e-06 5.37247e-06)
(-1.18342e-05 -1.44636e-06 7.1409e-06)
(-3.88783e-05 -2.01596e-06 1.80836e-05)
(-3.30393e-05 -3.23115e-06 1.64949e-05)
(-3.83282e-06 -1.0885e-05 -4.77802e-06)
(-1.74476e-06 -1.06662e-05 -2.30431e-06)
(-0.000127515 2.55515e-05 0.000184095)
(-0.000110702 3.43167e-05 0.000156547)
(-0.000160146 -1.71545e-05 0.000274213)
(-0.00013994 -2.31839e-05 0.00023607)
(-0.000103052 -5.72351e-06 0.000173028)
(-9.01686e-05 -8.7891e-06 0.000148932)
(-0.000156905 9.46252e-05 0.00046865)
(-0.000217862 0.000169425 0.00065592)
(7.6743e-06 -1.19686e-05 0.000188639)
(-9.46219e-07 -4.72894e-06 0.000159329)
(-0.000102116 2.75556e-05 0.00019305)
(-5.56961e-05 1.2922e-06 0.000167502)
(-0.000181224 -5.50114e-05 0.000492614)
(-0.000181287 -3.7677e-05 0.00049313)
(-0.000181075 -4.33697e-05 0.000526636)
(-0.000197289 -1.94661e-05 0.000528383)
(-0.000559901 1.87711e-06 -0.000151421)
(-0.000642383 2.56575e-06 -0.000183589)
(-2.27562e-05 -7.96784e-05 9.95829e-06)
(-2.65505e-05 -7.89424e-05 1.19244e-05)
(-2.14598e-05 -4.38597e-05 6.54741e-05)
(-2.52216e-05 -5.36463e-05 8.18108e-05)
(-2.90546e-05 -5.25427e-05 6.60746e-05)
(-2.32256e-05 -4.04488e-05 5.3738e-05)
(-1.54692e-05 -8.61468e-05 8.48788e-06)
(-1.98965e-05 -9.83543e-05 6.53327e-06)
(-2.34976e-05 -8.34781e-05 8.81955e-06)
(-2.18849e-05 -8.64858e-05 9.21291e-06)
(-2.31359e-05 -0.000128636 -1.56103e-05)
(-1.99742e-05 -0.000111411 -1.41257e-05)
(-7.64311e-06 -5.66218e-05 -3.31687e-06)
(-9.879e-06 -5.0537e-05 -4.75771e-06)
(-6.0979e-05 -3.12049e-05 9.45456e-05)
(-5.57668e-05 -3.30301e-05 8.93454e-05)
(8.74877e-05 4.04178e-06 -0.000235061)
(9.48974e-05 -4.76654e-06 -0.000219956)
(-0.000137056 -5.91693e-05 -1.2486e-05)
(-0.000135893 -6.6132e-05 -1.46759e-05)
(-0.000299767 -4.8118e-05 0.000145188)
(-0.000321714 -5.22897e-05 0.000136336)
(-0.000291166 -7.39934e-05 -2.60187e-05)
(-0.000284529 -6.12742e-05 -3.52e-05)
(-0.00017312 0.000193177 0.000235736)
(-0.000166876 0.000241762 0.00021878)
(-0.000249004 -4.48012e-05 1.31739e-05)
(-0.000131066 -4.66493e-05 -1.84708e-05)
(-0.00020691 -7.76718e-05 7.4744e-05)
(-0.000178267 -7.61052e-05 6.32047e-05)
(-0.000227676 -5.19494e-05 5.88404e-05)
(-6.73553e-05 -4.214e-05 -7.09626e-06)
(-3.91105e-05 -2.09107e-05 6.0513e-05)
(-3.22301e-05 -1.93885e-05 5.58668e-05)
(0.000603406 -0.000245711 0.000434248)
(0.00054312 -0.000209504 0.000358383)
(0.00054073 -0.000311892 0.000231914)
(0.000494565 -0.000223915 0.000260513)
(0.000509118 -0.000267537 0.000249754)
(0.000283951 -0.000208947 0.000184601)
(0.000382821 -0.000262385 0.00021691)
(0.00030143 -0.000204674 0.000194679)
(0.000478499 -0.000229285 0.000364023)
(0.00050999 -0.000282515 0.000349429)
(0.000494597 -0.000268799 0.000297243)
(0.000398901 -0.000283972 0.000187172)
(0.000500738 -0.000325838 0.000184943)
(0.000418192 -0.000251734 0.00023641)
(0.000177443 -0.000123835 0.000159041)
(0.000275837 -0.000213012 0.000183483)
(0.000215334 -0.000142489 0.000180521)
(0.000165859 -0.000112711 0.000163986)
(8.12871e-05 -6.83257e-07 0.000142295)
(0.000253122 9.92846e-05 6.38084e-05)
(0.00031013 0.00010031 0.000108665)
(0.000267301 6.91454e-05 0.000118874)
(0.000282449 5.60192e-05 6.30937e-05)
(0.000338781 5.96666e-05 0.000105085)
(0.000303825 9.08213e-05 0.000105495)
(0.000275502 7.00577e-05 8.66336e-05)
(9.35158e-05 2.96396e-05 0.000126535)
(0.000101353 4.11018e-05 0.000118158)
(0.000101292 8.32123e-07 0.000164439)
(0.000104348 -1.23887e-06 0.00016999)
(0.000121573 5.30364e-06 0.000183724)
(9.92174e-05 2.18976e-06 0.000158354)
(0.000103036 6.49717e-06 0.000171145)
(7.93448e-05 1.30863e-05 0.000137412)
(6.69568e-05 1.05405e-05 0.000108576)
(6.5666e-05 -9.56949e-06 0.000123986)
(7.12673e-05 -8.69497e-06 0.000132632)
(4.06764e-05 -2.92654e-05 0.000106417)
(6.06792e-05 -2.51584e-05 0.000115704)
(4.67837e-05 -9.09181e-06 9.5731e-05)
(3.05896e-05 -1.38768e-05 8.07693e-05)
(3.67752e-05 -1.69013e-05 8.79251e-05)
(0.000133308 7.01608e-05 8.12564e-05)
(0.000157314 7.94007e-05 9.07403e-05)
(0.000161133 7.32442e-05 9.90805e-05)
(0.000155753 7.20084e-05 7.22271e-05)
(9.69969e-05 4.19348e-05 0.000106978)
(0.000108456 5.12758e-05 8.18576e-05)
(0.000114093 6.0137e-05 5.53632e-05)
(0.000116948 5.33856e-05 6.07039e-05)
(0.000100813 4.66199e-05 6.92408e-05)
(0.000234025 9.44434e-05 5.81394e-05)
(0.000186608 8.52449e-05 5.49311e-05)
(0.000252861 8.98611e-05 6.92195e-05)
(0.000234243 6.77455e-05 5.63945e-05)
(0.000200053 8.22299e-05 4.23653e-05)
(0.000187993 6.47601e-05 4.81638e-05)
(6.48845e-05 2.0071e-05 8.29894e-05)
(6.90092e-05 2.39623e-05 8.14082e-05)
(5.17969e-05 4.54825e-06 9.29745e-05)
(7.69626e-05 3.62976e-05 6.80416e-05)
(3.65626e-05 -1.56526e-07 6.85895e-05)
(4.63308e-05 1.75097e-05 5.23539e-05)
(9.16424e-05 4.29273e-05 7.01696e-05)
(0.000124944 6.086e-05 4.37674e-05)
(4.96903e-05 2.76794e-05 2.28989e-05)
(6.46652e-05 3.15999e-05 3.66766e-05)
(5.16462e-05 2.82353e-05 3.03952e-05)
(0.0001076 6.08053e-05 1.96027e-05)
(0.000141402 6.96792e-05 3.93444e-06)
(0.000132727 5.10531e-05 3.62758e-05)
(0.00012765 6.05291e-05 2.55202e-05)
(0.000306855 2.60535e-05 0.000535894)
(0.000344967 5.48021e-05 0.000625354)
(0.000311597 -2.53965e-06 0.000555236)
(0.000321624 2.72614e-05 0.000568486)
(0.000371278 0.000103999 0.000418326)
(0.000404724 0.000110976 0.000500771)
(0.000288929 9.97726e-05 0.000412497)
(0.000317648 9.44251e-05 0.000473734)
(0.000298016 0.000104814 0.000453637)
(0.000280799 8.71267e-05 0.000468996)
(0.000399959 0.000158049 0.0005255)
(0.000335798 0.000134425 0.000396365)
(0.000385693 0.000141867 0.000496394)
(0.000244175 9.1466e-05 0.000404148)
(0.000329208 0.000118825 0.000505039)
(0.000421809 0.000134667 0.000404821)
(0.000371873 0.000136809 0.000469667)
(0.000367146 0.000134891 0.000473645)
(0.000416137 0.000135019 0.000577664)
(0.000434178 0.000171104 0.000514516)
(0.00047683 0.000185122 0.000510875)
(0.000463031 0.000189702 0.000477268)
(0.000454312 0.000157924 0.00057252)
(0.000439856 0.000162237 0.000573372)
(0.000423525 7.86305e-05 0.000497489)
(0.000541071 8.47418e-05 0.000531095)
(0.000414078 9.86469e-05 0.000510887)
(0.00031569 9.85258e-05 0.000394393)
(0.000400247 9.55762e-05 0.000494088)
(0.000437521 7.48423e-05 0.000431954)
(0.000326919 5.94447e-05 0.000323497)
(0.000350239 0.000105636 0.000383572)
(0.000379491 8.80271e-05 0.000375496)
(0.000381095 9.80397e-05 0.000363979)
(0.000522989 -4.14465e-05 0.000464237)
(0.000540662 -6.05521e-05 0.00046211)
(0.00056028 -0.000152349 0.000440024)
(0.000431211 -6.65138e-05 0.000392232)
(0.000520052 -0.000130197 0.000337988)
(0.000403787 -9.58719e-06 0.000359159)
(0.000565242 -0.000142445 0.000362674)
(0.00037921 -3.01341e-05 0.000300389)
(0.000493242 -0.000109026 0.000283654)
(0.000589577 -0.000232568 0.00027023)
(0.00035517 6.07449e-05 0.000370609)
(0.000355168 8.90851e-05 0.000385396)
(0.000395831 2.39241e-05 0.000315276)
(0.000390546 6.50691e-05 0.000330864)
(0.000411198 0.000148189 0.00039709)
(0.000439151 0.000151034 0.000526749)
(0.000440157 0.000150421 0.000476491)
(0.000457527 0.000132047 0.00038866)
(0.00051221 0.00016734 0.000430462)
(0.000504402 0.000191925 0.000538738)
(0.000448791 0.000156637 0.000534097)
(0.000477333 0.000155945 0.000566006)
(0.000479087 0.000175308 0.000405837)
(0.000459858 0.000162092 0.000538785)
(0.000460655 0.000166688 0.000540122)
(0.000574946 0.00020789 0.000666585)
(0.000552232 0.000197598 0.000523444)
(0.000413398 0.000120431 0.000378948)
(0.000584386 0.000184427 0.000429342)
(0.000465309 0.000106774 0.000394283)
(0.000596986 0.000150748 0.000399166)
(0.000521569 0.000181374 0.000443555)
(0.000528622 0.000166729 0.000518586)
(0.000704695 0.00026617 0.00052924)
(0.000559604 0.00019055 0.000430898)
(0.000536889 0.000163386 0.000455893)
(0.000748045 0.000264433 0.000481973)
(0.000570145 0.000246559 0.000486877)
(0.000607775 0.000210346 0.00059964)
(0.000564026 0.000182552 0.000634425)
(0.00066679 0.000228394 0.000620624)
(0.00066758 0.000235272 0.000599706)
(0.000350214 0.000136936 0.000464)
(0.000343648 0.000128895 0.000461988)
(0.000235061 6.77815e-05 0.000432774)
(0.000341549 0.000127346 0.000499086)
(0.000427464 0.000117991 0.000643747)
(0.000391716 0.000108326 0.000595269)
(0.000375666 0.000140903 0.000494661)
(0.000396589 0.00014991 0.000516988)
(0.000379885 0.000143876 0.000563954)
(0.000359032 5.82834e-05 0.00064518)
(0.000309852 3.77518e-05 0.000579601)
(0.00036569 0.000103673 0.000611219)
(0.000345834 9.14031e-05 0.000597009)
(0.00030969 3.68462e-05 0.000506227)
(0.00042142 0.000164966 0.000539776)
(0.000445968 0.000134477 0.000626646)
(0.000396665 0.000117296 0.00060695)
(0.000381858 -9.84972e-06 0.000633546)
(0.000474337 0.000138959 0.000717562)
(0.000356049 5.34662e-05 0.00061463)
(0.000461186 0.000181093 0.000532093)
(0.000502442 0.000191661 0.000573918)
(0.000448551 0.000137504 0.000636218)
(0.000434646 0.000168741 0.000563761)
(0.00050346 0.000198448 0.000570767)
(0.000502358 0.00012217 0.000701835)
(0.000510562 0.000138848 0.000783315)
(0.00040627 4.02234e-05 0.000679806)
(0.000372061 4.05938e-05 0.000612126)
(0.000403952 7.02237e-05 0.000649802)
(0.000459404 0.000125106 0.000687228)
(0.000391944 6.76961e-05 0.000608417)
(0.00051092 0.000212594 0.000606316)
(0.000511193 0.000100651 0.000752594)
(0.00059066 0.000186509 0.000852403)
(0.000276945 8.63695e-06 0.000484243)
(0.000289245 5.08725e-05 0.000496712)
(0.000350933 0.000128396 0.000549359)
(0.000370199 8.07784e-05 0.000626753)
(0.00034657 2.34634e-05 0.000574967)
(0.00043316 9.001e-05 0.000688727)
(0.000330659 -1.45319e-05 0.000558889)
(0.000334169 3.55915e-05 0.000554251)
(0.000424861 0.000140249 0.000667938)
(0.000352217 4.4027e-05 0.000598746)
(0.000305709 3.49867e-05 0.000512851)
(0.000373567 -4.85346e-06 0.000615959)
(0.000322102 4.08729e-05 0.000540716)
(0.000347946 4.46891e-05 0.000573024)
(0.000422158 4.01332e-05 0.000689607)
(0.00032932 8.70485e-05 0.000566163)
(0.00032851 5.77431e-05 0.000553198)
(0.000417437 -5.84716e-05 0.000639284)
(0.000475758 0.000124748 0.000749927)
(0.000407845 -2.56171e-05 0.000688471)
(0.000520347 6.35897e-05 0.000850719)
(0.000397556 8.62736e-06 0.000665043)
(0.000418255 2.87003e-05 0.000685476)
(0.000527418 0.000157346 0.000766456)
(0.000422268 5.17746e-05 0.000674657)
(0.000481682 3.31868e-05 0.000767246)
(0.00051776 4.39041e-05 0.000848119)
(0.000525974 1.91905e-05 0.000843931)
(0.000417303 3.61848e-05 0.000668024)
(0.000470576 4.14263e-05 0.000746788)
(0.000420741 1.89374e-05 0.000668172)
(0.000478592 5.11875e-05 0.000757992)
(0.000546649 0.000171879 0.000694421)
(0.000536623 0.00019026 0.00062383)
(-2.10088e-05 -4.91132e-05 0.000160253)
(0.000563886 0.000148607 0.000781006)
(0.000489967 0.000133613 0.000672925)
(0.000617065 0.000226501 0.000673515)
(0.000572816 0.000218387 0.000605754)
(0.000609911 0.000212412 0.000682805)
(-2.52674e-05 -4.87868e-05 0.000159694)
(0.000544857 0.000170588 0.000720064)
(0.000561394 0.00020351 0.000661434)
(0.000608964 0.000224471 0.000692908)
(0.00055595 0.000164837 0.000771297)
(0.000623459 0.000173046 0.000915515)
(-2.29074e-05 -4.85689e-05 0.000156968)
(0.000466063 6.49819e-05 0.000733954)
(0.000432174 5.85093e-05 0.000710762)
(0.000464797 8.89393e-05 0.000709561)
(0.000525958 5.64432e-05 0.000796517)
(0.000463081 0.000102161 0.00070607)
(-2.53777e-05 -3.80782e-05 0.000159982)
(0.000574913 0.000231256 0.00066861)
(0.000595506 0.000118627 0.000841672)
(0.000683449 0.000214954 0.000933577)
(0.000655524 0.000216974 0.00077921)
(0.000718714 0.000253201 0.000654897)
(0.000778502 0.000288753 0.000656924)
(0.000644789 0.000187372 0.000837769)
(0.000603733 0.000172509 0.000752407)
(0.000634778 0.000258123 0.000627863)
(0.000668475 0.000237626 0.000682605)
(0.000645788 0.000204787 0.000764441)
(0.00071239 0.000244095 0.00081277)
(0.000741435 0.000283921 0.000784102)
(0.000661799 0.000205679 0.000842563)
(0.000685861 0.000169057 0.000945136)
(0.000561208 0.00013348 0.000789278)
(0.000630172 0.000139505 0.000980323)
(0.000510457 9.96764e-05 0.000758909)
(0.000590451 8.17091e-05 0.000892917)
(0.000735354 0.000243209 0.000931491)
(0.000609513 0.000194252 0.000775062)
(0.000651651 0.000171329 0.000928327)
(0.000544595 9.27512e-05 0.000876446)
(0.000561414 0.000148155 0.000798001)
(0.0007376 0.000135335 0.0010336)
(0.000641156 0.000144664 0.000995618)
(0.000591327 6.55763e-05 0.000949071)
(0.000590544 2.57587e-05 0.00094124)
(0.000476097 2.81997e-05 0.000789808)
(0.000467363 6.0551e-05 0.000737012)
(0.000603672 0.000120539 0.000873274)
(0.000619102 0.00013068 0.000965931)
(0.00057858 2.95585e-05 0.000905808)
(0.000596903 4.54029e-05 0.000939125)
(0.000604194 -2.89212e-05 0.000940234)
(0.000582753 4.90698e-05 0.000893683)
(0.000674028 0.000134678 0.0009775)
(-3.13525e-05 -4.31771e-05 0.000168368)
(0.000506179 3.05755e-06 0.000826894)
(0.000459863 5.72609e-05 0.000724176)
(0.000656525 0.000160064 0.000965612)
(0.000689025 0.00019916 0.00102882)
(0.000571541 3.06675e-06 0.000952202)
(0.000717142 7.43503e-05 0.0011295)
(0.000532392 5.28135e-05 0.000836252)
(0.000654803 4.07788e-05 0.00100447)
(0.0005249 7.0302e-05 0.00083206)
(0.000503786 3.44715e-07 0.000772089)
(0.000644264 -7.72571e-05 0.000957104)
(0.000702105 4.76021e-05 0.00111152)
(0.000701444 2.19544e-05 0.00110224)
(0.000351501 -4.95835e-05 0.000509711)
(0.000274506 1.91953e-05 0.000425008)
(0.000306242 1.06835e-05 0.000440154)
(0.000293753 8.75853e-06 0.000448442)
(0.000211418 3.79446e-05 0.000377393)
(0.000279609 2.88383e-05 0.000435627)
(0.000356597 5.89247e-06 0.000467059)
(0.00027852 4.6602e-05 0.000439737)
(0.000336611 4.28326e-05 0.000597435)
(0.000336974 5.86995e-05 0.000570489)
(-2.31197e-05 -4.18179e-05 0.000153543)
(-2.67883e-05 -4.38498e-05 0.000160441)
(-2.4788e-05 -4.05164e-05 0.000148616)
(-2.62709e-05 -3.68368e-05 0.000149479)
(0.000375574 3.50136e-05 0.000590483)
(0.000339213 7.57917e-05 0.000541972)
(0.000402082 1.77025e-05 0.000543775)
(0.000357999 3.58882e-05 0.000488792)
(0.000381711 -4.92364e-06 0.00050132)
(0.000376048 1.36726e-05 0.00047556)
(-2.97134e-05 -3.62268e-05 0.000154858)
(0.000395201 5.97346e-06 0.000514158)
(-3.50372e-05 -2.88974e-05 0.000164935)
(-3.01287e-05 -3.46075e-05 0.000155946)
(0.000405348 1.74667e-05 0.00022311)
(0.000399109 2.07052e-05 0.000261226)
(0.000384072 -5.50394e-06 0.000253498)
(-3.34691e-05 -3.44504e-05 0.000153972)
(-2.65221e-05 -3.83324e-05 0.000164619)
(-2.59171e-05 -4.18727e-05 0.00016116)
(-3.2322e-05 -3.37725e-05 0.000175054)
(-3.38638e-05 -4.23124e-05 0.000182663)
(-2.97057e-05 -3.02967e-05 0.000166665)
(-2.85683e-05 -2.62451e-05 0.000159465)
(-3.46675e-05 -3.44903e-05 0.000159049)
(0.000357594 6.19268e-05 8.97285e-05)
(0.000413473 6.21127e-05 0.000145341)
(0.000342006 3.50704e-05 9.71006e-05)
(0.000329096 6.42914e-05 8.14638e-05)
(0.000347732 4.85765e-05 0.000104546)
(0.00040227 1.66619e-05 0.000141736)
(0.000388896 1.80577e-05 0.000195538)
(0.000421253 -1.89987e-05 0.000209155)
(0.0004138 8.13181e-06 0.000176991)
(0.000390246 8.17817e-06 0.000212275)
(0.000384388 3.41628e-05 0.000112567)
(0.000401895 1.44106e-06 0.000120813)
(0.000400249 -1.28828e-06 0.000368067)
(0.000377768 1.19715e-05 0.000396866)
(0.000376658 3.35685e-06 0.000419144)
(0.000336486 1.1431e-05 0.000401009)
(0.000364688 5.68287e-06 0.000431836)
(0.000305006 2.66596e-05 0.000401746)
(0.000432383 7.53338e-06 0.000409252)
(0.000442417 -1.53642e-05 0.000353692)
(0.00044001 -5.95357e-06 0.000336531)
(0.000382567 2.03161e-06 0.000342306)
(0.00037379 -1.15819e-05 0.00043716)
(0.000386209 -5.80753e-06 0.00039086)
(0.000410916 2.77494e-05 0.000497451)
(0.000465398 -1.90699e-05 0.000264044)
(0.000442161 -3.6341e-05 0.000345005)
(0.000448611 -3.93184e-05 0.000288683)
(0.000462654 -2.21713e-05 0.000357957)
(0.000490114 -6.48289e-05 0.000253065)
(0.00043409 -2.88942e-05 0.000395845)
(0.000412789 -2.78156e-05 0.000452539)
(0.000448576 -5.53761e-05 0.00043304)
(0.000452921 -2.50045e-06 0.00051613)
(0.000526423 -7.17319e-05 0.000431283)
(0.000495813 -8.10755e-05 0.000359699)
(0.000503281 -7.54487e-05 0.000290129)
(0.000492748 -5.03724e-05 0.000363395)
(0.000434085 -3.55847e-05 0.000198918)
(0.000429127 -2.8883e-05 0.000161716)
(0.000460173 -2.97809e-05 0.000202225)
(0.000302713 7.08307e-05 5.16513e-05)
(0.000316918 5.71072e-05 7.77593e-05)
(0.00026786 7.70302e-05 2.95914e-05)
(0.000298086 6.77103e-05 4.70995e-05)
(0.000341285 3.47626e-05 7.26663e-05)
(0.000388304 6.09316e-06 9.67864e-05)
(0.000320321 4.79676e-05 6.948e-05)
(0.000200805 7.31782e-05 1.3168e-05)
(0.000287575 8.41547e-05 2.84895e-05)
(0.000117892 5.5913e-05 4.41695e-05)
(0.000133037 5.74928e-05 2.41517e-05)
(0.000234341 8.87326e-05 1.67184e-05)
(0.000254527 6.91601e-05 5.5382e-05)
(0.00023484 3.89183e-05 -5.84562e-06)
(0.000280013 4.9716e-05 4.34197e-05)
(0.000339243 3.86371e-05 3.00784e-05)
(0.000231144 7.22567e-05 1.38185e-05)
(0.000223821 5.29236e-05 1.93507e-05)
(0.000304338 5.42919e-05 2.58555e-05)
(0.000558912 -0.000109754 0.000228865)
(0.000556101 -0.000114984 0.000380445)
(0.000539321 -0.000114375 0.000304935)
(0.000569842 -0.000102108 0.000385324)
(0.000442978 -1.72854e-05 0.00013847)
(0.00048993 -8.49657e-05 0.000201166)
(0.000450511 -4.06098e-05 0.000176435)
(0.000456213 -5.84338e-05 0.00018377)
(0.000409338 -8.12699e-06 9.34982e-05)
(0.000445993 -4.51575e-05 0.000134087)
(0.000532761 -9.69574e-05 0.000164916)
(0.000579799 -0.000109255 0.000212534)
(0.00060332 -0.00017217 0.000278994)
(0.000569127 -0.000119011 0.000200365)
(0.000538007 -0.000120116 0.000233246)
(0.000378684 1.92447e-05 5.32615e-05)
(0.000393761 -3.10741e-06 5.86904e-05)
(0.000427135 -5.09804e-05 0.000115155)
(0.000398649 -4.54636e-06 8.27013e-05)
(0.000413532 -2.86474e-05 7.92931e-05)
(0.000322973 3.51678e-05 5.53095e-05)
(0.000373098 -1.30393e-06 5.52875e-05)
(0.000551083 -9.01754e-05 0.000130007)
(0.000579815 -0.000141589 0.000152384)
(0.000607892 -0.000149048 0.000135046)
(0.000473016 -6.4639e-05 0.000128465)
(0.00043533 -2.93721e-05 0.000136219)
(0.000481637 -6.41251e-05 0.000106269)
(0.000298252 5.3653e-05 0.000509797)
(0.000317072 3.37064e-05 0.000526235)
(0.000356384 -1.69943e-05 0.000557932)
(0.000355155 9.52526e-06 0.000552823)
(0.000303469 7.13413e-05 0.000512414)
(0.000340904 6.68474e-06 0.000515647)
(0.000445087 -2.59129e-05 0.000663586)
(0.000316311 3.03239e-05 0.000519024)
(0.000348578 1.54172e-05 0.00053859)
(0.000399892 2.54318e-05 0.000616362)
(0.000392333 -7.36862e-06 0.000548302)
(0.000360881 1.51101e-05 0.000513727)
(0.000399592 1.83209e-05 0.000574722)
(0.000474691 -1.39014e-05 0.000676521)
(0.000483935 2.27019e-05 0.000797968)
(0.000362448 5.06197e-05 0.000581748)
(0.000412462 5.03658e-05 0.000668327)
(0.000400773 5.822e-05 0.00067307)
(0.000428245 8.34308e-06 0.000660054)
(0.00056618 -6.47393e-05 0.000801412)
(0.000523112 -0.000104913 0.000703627)
(0.000429931 7.1544e-05 0.000707146)
(0.000450754 -6.96887e-06 0.00067042)
(0.00040268 1.45104e-05 0.000576768)
(0.000452143 1.22901e-05 0.00064874)
(0.000442681 -2.7736e-05 0.000564402)
(0.000398033 -1.61795e-05 0.000492414)
(0.000446129 -4.54731e-06 0.000578824)
(-3.62132e-05 -2.99799e-05 0.000160924)
(0.00051889 -9.22214e-05 0.000636891)
(0.000484401 -5.49553e-05 0.000545254)
(0.000530414 -1.40468e-05 0.000661807)
(0.000422439 -1.00809e-05 0.000614533)
(0.000489532 -3.96727e-05 0.000636506)
(0.000556516 -3.45673e-05 0.000734909)
(0.000505632 -8.58903e-05 0.000535066)
(0.000494983 -8.04172e-05 0.000448103)
(0.000483484 -2.5334e-05 0.000552409)
(0.000632207 -3.36263e-05 0.000966839)
(0.00043844 1.88024e-05 0.000678265)
(-3.6361e-05 -2.58107e-05 0.00014874)
(0.000468435 -6.33373e-06 0.000680696)
(0.000539507 -1.13533e-06 0.00079551)
(0.000616762 -6.86923e-05 0.000877868)
(0.000626135 -0.000111968 0.000809721)
(0.000456711 -4.32986e-05 0.000591004)
(-4.14781e-05 -2.12525e-05 0.000160495)
(0.000563457 -0.000181759 0.000547184)
(0.000591451 -5.95082e-05 0.000731293)
(0.000606985 -7.75234e-05 0.000842839)
(0.000531067 -7.37722e-05 0.000698532)
(0.000593198 -4.26272e-05 0.000804332)
(0.000659158 -0.000115431 0.000796411)
(0.000584737 -9.13222e-05 0.000652658)
(0.000722636 -0.000206813 0.000814729)
(0.000636596 -0.000204555 0.000641803)
(0.000672992 -0.000136416 0.000791249)
(0.000478955 2.92379e-05 0.000753813)
(0.000482953 -2.38395e-05 0.00071277)
(0.000592828 -4.49344e-05 0.000859319)
(0.000641685 -3.9621e-05 0.000964858)
(0.000628046 -0.000132037 0.000884089)
(0.000573937 4.81889e-05 0.000878926)
(0.000662189 -9.1103e-05 0.000995368)
(0.000622629 8.3434e-05 0.000981531)
(0.000583926 -2.95795e-05 0.000880242)
(0.00057181 -5.92667e-05 0.000819638)
(0.000682691 -0.000107402 0.000955716)
(0.000561285 -8.40846e-05 0.000794114)
(0.000610487 -0.000128029 0.000772787)
(0.000696287 -0.000125534 0.000903363)
(0.000798034 -0.000198526 0.00098031)
(0.000612531 -0.000189811 0.000735224)
(0.000717892 -0.000281476 0.000677883)
(0.000742948 -0.000145256 0.000880181)
(0.00058992 -0.000140269 0.000449864)
(0.000496738 -0.000141182 0.000465909)
(0.000585102 -0.000162631 0.000474529)
(0.000571632 -6.67893e-05 0.000616293)
(0.0006353 -0.000140511 0.000632459)
(0.000624978 -0.000169799 0.000460382)
(0.000582774 -0.00017484 0.000401974)
(0.000640956 -0.000185959 0.000292878)
(0.000591522 -0.000134213 0.000389935)
(0.000681119 -0.000216412 0.000467339)
(0.00068834 -0.000261731 0.000334966)
(0.000680756 -0.00021077 0.00044176)
(0.000703611 -0.000221984 0.000637696)
(-4.41943e-05 -1.7086e-05 0.000158736)
(0.000665532 -0.000259941 0.000486273)
(0.000681933 -0.000191806 0.000627998)
(0.000806001 -0.000326842 0.000750593)
(0.000776234 -0.000348035 0.000530184)
(0.000742968 -0.000227743 0.000701099)
(-4.74826e-05 -1.24008e-05 0.000160043)
(0.00076766 -0.000320432 0.000530567)
(0.000804798 -0.00034636 0.000387866)
(-3.59855e-05 -3.43321e-05 0.000183152)
(0.000711564 -0.000234658 0.000513552)
(0.000633148 -0.000188831 0.000304185)
(-4.00353e-05 -2.70488e-05 0.000186399)
(0.000646988 -0.000174646 0.000257786)
(0.000631293 -0.000179421 0.000277306)
(-3.42744e-05 -3.41612e-05 0.000168458)
(0.000714952 -0.00018788 0.000214323)
(-3.74241e-05 -1.67137e-05 0.000169808)
(-4.07124e-05 -2.86291e-05 0.000183248)
(0.00072192 -0.00029679 0.000286528)
(0.000686533 -0.000232628 0.000251142)
(-4.18674e-05 -2.72084e-05 0.00018291)
(0.000679441 -0.000218713 0.000334525)
(0.000457459 -0.00029107 0.000219799)
(-4.54007e-05 -1.97893e-05 0.000178201)
(0.000514601 -0.000335624 0.000166302)
(0.000413842 -0.000277528 0.000163394)
(-4.44232e-05 -2.04381e-05 0.000182323)
(0.000323651 -0.000230826 0.000183385)
(0.000389882 -0.000280808 0.00017476)
(-4.83131e-05 -1.30594e-05 0.000191022)
(0.000286252 -0.000216246 0.000143136)
(0.000347302 -0.00022157 0.00023297)
(-3.71545e-05 -1.96189e-05 0.000164352)
(-3.36659e-05 -1.74015e-05 0.000151592)
(0.000390753 -0.000262097 0.000165348)
(-3.92918e-05 -2.37909e-05 0.000154052)
(-4.11473e-05 -1.82154e-05 0.000168332)
(0.000214438 -0.000157696 0.000155658)
(-3.96002e-05 -1.58422e-05 0.000152917)
(-4.3519e-05 -1.32252e-05 0.000166714)
(0.000277051 -0.000210629 0.000166524)
(-4.21156e-05 -1.26176e-05 0.000151082)
(0.000193335 -0.000146014 0.000132724)
(0.000114387 -8.64035e-05 0.000101224)
(0.000186491 -0.000136391 0.000154413)
(0.000131317 -8.49399e-05 0.000125414)
(0.000100407 -6.99224e-05 9.75482e-05)
(0.000152028 -9.60708e-05 0.000135772)
(0.000108931 -8.37414e-05 9.31662e-05)
(0.000215086 -0.000135897 0.000185209)
(0.000254284 -0.00016884 0.000167762)
(0.000269638 -0.000239444 8.56346e-05)
(0.000409878 -0.000314237 0.000112496)
(0.000289981 -0.000211062 0.000141966)
(0.000132888 -0.000115171 7.3948e-05)
(0.000258693 -0.000217633 0.000109032)
(0.000187039 -0.000139412 0.000127302)
(0.000149056 -0.000117287 0.00011956)
(0.00018829 -0.000130405 0.000149958)
(0.000238885 -0.000168612 0.000134145)
(7.43852e-05 -8.52049e-05 3.72363e-05)
(0.000140771 -0.000103938 0.00010332)
(0.000106722 -0.000101471 7.16654e-05)
(4.90081e-05 5.7624e-06 8.23126e-05)
(6.64726e-05 -2.17369e-05 9.1132e-05)
(6.18433e-05 2.47148e-06 0.000100727)
(6.29432e-05 1.93901e-05 0.000105746)
(6.67407e-05 4.30104e-05 0.000106671)
(3.83169e-05 2.66466e-05 7.33869e-05)
(-2.55147e-05 -3.87249e-05 0.0001449)
(3.73238e-05 3.03071e-05 7.79417e-05)
(3.40887e-05 1.88853e-05 5.31023e-05)
(4.55166e-05 4.60317e-05 7.39917e-05)
(2.83295e-05 4.90196e-05 4.48242e-05)
(9.24777e-05 -5.73898e-05 0.000103199)
(-2.833e-05 -3.54315e-05 0.00014725)
(5.39287e-05 -2.37044e-05 7.34694e-05)
(9.23322e-05 -4.55757e-05 0.000106974)
(7.41696e-05 -3.7738e-05 8.66499e-05)