/*--------------------------------*- C++ -*----------------------------------*\
  =========                 |
  \\      /  F ield         | OpenFOAM: The Open Source CFD Toolbox
   \\    /   O peration     | Website:  https://openfoam.org
    \\  /    A nd           | Version:  7
     \\/     M anipulation  |
\*---------------------------------------------------------------------------*/
FoamFile
{
    version     2.0;
    format      ascii;
    class       volScalarField;
    location    "6.5";
    object      p;
}
// * * * * * * * * * * * * * * * * * * * * * * * * * * * * * * * * * * * * * //

dimensions      [0 2 -2 0 0 0 0];

internalField   nonuniform List<scalar> 
382612
(
0.00208591
0.00185844
0.00200484
0.00200762
0.00175445
0.00221999
0.00212947
0.00201657
0.00184261
0.00169773
0.00188293
0.00187087
0.00182608
0.00185422
0.00195676
0.00208315
0.00186677
0.00200664
0.00202966
0.00205052
0.00207054
0.0020965
0.00212242
0.00213776
0.0021182
0.00209401
0.00207065
0.00249106
0.00253656
0.00257489
0.0026067
0.00239679
0.00238989
0.0023806
0.00236415
0.00227561
0.00197521
0.00205567
0.0021191
0.00215123
0.00217784
0.00220148
0.00212077
0.00210426
0.00208249
0.00205518
0.0019711
0.00198581
0.00200671
0.00202397
0.00218047
0.00216344
0.00214318
0.00212138
0.00209212
0.00193982
0.00198672
0.00206391
0.00212829
0.00202219
0.00209641
0.00198308
0.00200223
0.00262332
0.00204331
0.00188277
0.0021571
0.00235843
0.00245986
0.0025956
0.00261374
0.00261636
0.00261771
0.00276766
0.00275783
0.00274474
0.0027195
0.00261183
0.00240325
0.00250929
0.00255064
0.00257838
0.00259791
0.0029344
0.00294144
0.00294933
0.00293199
0.00277177
0.00214263
0.00227384
0.00230625
0.00232206
0.00233253
0.00250814
0.00252231
0.00253954
0.00253913
0.00246101
0.00202797
0.00209251
0.00211762
0.00213212
0.00214767
0.00216532
0.00204139
0.00203366
0.00202478
0.00202119
0.00183258
0.00186214
0.00188418
0.00190025
0.00214976
0.00212978
0.00210759
0.00208552
0.00205433
0.00172033
0.00183076
0.00186357
0.00187938
0.00188906
0.00205316
0.00203324
0.00201175
0.0019877
0.00191805
0.00166529
0.00184451
0.00198209
0.00200634
0.00201593
0.00201937
0.00222927
0.00223778
0.00224963
0.00226142
0.00237162
0.00234935
0.0022228
0.0021922
0.00217315
0.0021595
0.00189751
0.00188722
0.00187503
0.00186763
0.00199179
0.00200644
0.00201864
0.00202672
0.00202302
0.00201826
0.00201032
0.00200443
0.00204589
0.00196356
0.00189502
0.00189516
0.00190232
0.00190736
0.00183734
0.00199158
0.00202753
0.00171425
0.00186587
0.00181577
0.00210473
0.00231517
0.00176968
0.00179402
0.0021262
0.00174168
0.00181487
0.00179453
0.00173016
0.00172756
0.00173649
0.00174205
0.0022563
0.00226717
0.002285
0.00230731
0.00230172
0.00195102
0.00191363
0.00190419
0.00190416
0.00190592
0.00223888
0.00225418
0.00227871
0.00230866
0.00233585
0.0020047
0.00212054
0.00212986
0.00212882
0.00212404
0.00212099
0.00193158
0.00193187
0.00193442
0.00194652
0.00163493
0.00163863
0.00164615
0.00164923
0.0019858
0.00198589
0.00198538
0.00198742
0.00202415
0.00165862
0.00164874
0.00202508
0.00192354
0.00159961
0.00183212
0.00198104
0.0016877
0.00197074
0.00193965
0.00166123
0.00156883
0.00188984
0.00191005
0.00175925
0.0015747
0.00180727
0.00194911
0.00200594
0.00199234
0.00197502
0.00184133
0.00168521
0.00201393
0.00193381
0.0019969
0.00203606
0.00195851
0.00199929
0.00212164
0.00210477
0.00190667
0.00194353
0.00198195
0.00199305
0.00200702
0.00202188
0.00217993
0.00217718
0.00216824
0.00212739
0.00239834
0.00237425
0.00235573
0.00233862
0.00276903
0.0027586
0.00274872
0.0027242
0.00258602
0.00249769
0.00243188
0.00244026
0.00245287
0.00245665
0.00246281
0.00212241
0.0021243
0.0021192
0.0021051
0.00211362
0.00258465
0.00254898
0.00255256
0.00256233
0.00257083
0.00240054
0.00238663
0.00236434
0.0023468
0.0023698
0.0025949
0.00255028
0.00254993
0.00256403
0.00257566
0.0027836
0.00278386
0.00278338
0.00277346
0.00269943
0.00261246
0.00274044
0.00277116
0.00278449
0.00279226
0.00321921
0.00322527
0.00323299
0.00321356
0.00303275
0.00225176
0.00228135
0.00229747
0.00232015
0.00233875
0.00240867
0.0024005
0.00238945
0.00236724
0.00226338
0.00207277
0.00215475
0.00218877
0.00221355
0.00223009
0.00257252
0.00258724
0.00261099
0.00262075
0.00252949
0.00185106
0.00185304
0.00185985
0.00187745
0.00189407
0.00198416
0.00198819
0.00200112
0.00201574
0.00202564
0.00195157
0.00193603
0.00191649
0.00190478
0.00188983
0.00244645
0.00245609
0.00243594
0.00240948
0.0023906
0.0018635
0.00185386
0.00184234
0.00184307
0.0018796
0.00237858
0.00233022
0.0022988
0.00227317
0.00225683
0.00173511
0.00173082
0.00172632
0.0017404
0.00183737
0.00202839
0.00196542
0.00195697
0.00196199
0.00196754
0.00221212
0.00222555
0.00224587
0.00227325
0.00232451
0.00193385
0.00184137
0.00182933
0.00183595
0.0018422
0.00218233
0.00219355
0.00220981
0.00222799
0.00223727
0.00200345
0.00204392
0.00204631
0.00204721
0.00204403
0.002041
0.00195685
0.00195626
0.00195616
0.00196187
0.00179523
0.00179275
0.00179444
0.00179529
0.00197987
0.00198318
0.00198606
0.00198825
0.00199697
0.00181429
0.00206796
0.00201221
0.00199962
0.00199611
0.0019936
0.00193996
0.00210798
0.00219482
0.00214285
0.00212642
0.0021177
0.00211178
0.00197724
0.00197728
0.00197686
0.00197629
0.00203554
0.0020329
0.00202881
0.00202563
0.0020497
0.0020513
0.00205374
0.00205551
0.00202926
0.00203092
0.00203461
0.00203711
0.00220607
0.00221077
0.00221587
0.00222057
0.00224464
0.00204509
0.00205919
0.00209
0.00214876
0.00198278
0.002049
0.00201233
0.00188482
0.00177089
0.0019726
0.00197537
0.0017997
0.0021484
0.00211065
0.00207988
0.00211304
0.00198468
0.00203881
0.00208761
0.00216764
0.00216109
0.00226455
0.00226052
0.00222274
0.00221587
0.00221669
0.00221845
0.00229258
0.00228979
0.00228591
0.00228225
0.00228545
0.00234822
0.00235193
0.00235214
0.00235336
0.00235564
0.00228645
0.00228759
0.00228863
0.0022878
0.00229017
0.00211996
0.00206904
0.0020744
0.00207549
0.00207405
0.00207299
0.00212843
0.00212269
0.00211529
0.00211091
0.00205903
0.00206269
0.00206706
0.00207025
0.00204742
0.00204893
0.00205093
0.00205132
0.00205004
0.00205897
0.00225033
0.00223288
0.00223224
0.00223075
0.00222839
0.00224557
0.00232317
0.00227394
0.00225657
0.0022608
0.00226852
0.00227417
0.00248047
0.0024802
0.00247814
0.0024677
0.00243382
0.00246567
0.00248712
0.00249519
0.00250035
0.00250411
0.00241183
0.00240674
0.00240016
0.00239384
0.00239444
0.00232403
0.00234754
0.00235891
0.00236364
0.00236649
0.00217664
0.00216726
0.00215599
0.00215031
0.0021102
0.00211314
0.00211277
0.00211261
0.00215753
0.00215626
0.00215475
0.00215108
0.00220797
0.00220966
0.00221514
0.00221981
0.00245049
0.00243974
0.00242559
0.00240749
0.002377
0.00221246
0.00213571
0.00212432
0.00223837
0.00217897
0.00211812
0.00208066
0.00213439
0.00198994
0.00202848
0.00208154
0.00211499
0.00218061
0.00209457
0.00209995
0.00220161
0.00215535
0.00209702
0.00227943
0.00233982
0.00243105
0.00246198
0.00241561
0.00241761
0.00242445
0.00243282
0.00243882
0.00257764
0.00257099
0.00256094
0.00254606
0.0025179
0.00254727
0.00257682
0.00258854
0.00259539
0.00259961
0.00250979
0.00250602
0.00249979
0.00248915
0.00247669
0.0024932
0.00250688
0.00251451
0.00251828
0.00252052
0.00245094
0.00244016
0.00242598
0.00240952
0.00237622
0.00223773
0.00226077
0.00226079
0.00225838
0.00225652
0.00233415
0.00232456
0.00231308
0.00229722
0.00224826
0.00216489
0.00210966
0.00212014
0.00212509
0.00212569
0.00212546
0.00215143
0.00214721
0.00214241
0.00214441
0.00218983
0.0021949
0.00220176
0.00220708
0.00213714
0.0021362
0.00213552
0.00213417
0.00212538
0.00218554
0.00217229
0.00210736
0.00211066
0.00216046
0.00211351
0.00207937
0.00209591
0.00214362
0.00224604
0.00213953
0.00207126
0.00210671
0.0021924
0.0020947
0.00230645
0.00263418
0.00223438
0.00211527
0.00238219
0.00251029
0.00258015
0.0025858
0.00255704
0.00252998
0.0024446
0.00247536
0.00248966
0.00249641
0.00250025
0.00257891
0.00257427
0.00256858
0.00256022
0.00253318
0.00257526
0.00260872
0.00261906
0.00262541
0.0026302
0.00258326
0.00257491
0.00256382
0.00255163
0.00253597
0.00257217
0.00260627
0.00261903
0.00262646
0.00263155
0.00259672
0.00259318
0.00258645
0.00257207
0.00253271
0.00241813
0.00241634
0.00242221
0.00243048
0.00243719
0.00248951
0.00248701
0.00248358
0.00247569
0.00244898
0.00232727
0.00232968
0.00233589
0.0023419
0.00234588
0.00221036
0.0022061
0.00220078
0.00219561
0.00218762
0.00211967
0.00209405
0.00210325
0.00210678
0.00210678
0.00210504
0.00212985
0.00212605
0.00212093
0.00211732
0.00210828
0.00211019
0.00211377
0.00211775
0.00207845
0.00207846
0.00207633
0.00207098
0.00206725
0.00211316
0.0022072
0.00220356
0.00220835
0.00221421
0.00221911
0.00216521
0.00216064
0.00215491
0.00215048
0.0021512
0.00206943
0.00205097
0.00206283
0.00206666
0.00206838
0.00207048
0.0020954
0.00208953
0.00208245
0.00207677
0.00209477
0.00209588
0.00209757
0.00209905
0.0020885
0.00208605
0.00208545
0.00208438
0.00207519
0.00209207
0.00208894
0.00205588
0.0020747
0.00208075
0.00202967
0.00202504
0.00210366
0.00214137
0.00217104
0.00209736
0.00207643
0.00206586
0.00210216
0.00207621
0.00199002
0.00190521
0.00215561
0.00209291
0.00216525
0.00223845
0.00235208
0.00219186
0.00218209
0.00233694
0.00206921
0.00204893
0.00212043
0.00224326
0.00216769
0.00210096
0.00209642
0.0022132
0.00225853
0.00212873
0.00208201
0.00206897
0.00231913
0.00230568
0.00236121
0.00236426
0.00237789
0.00236072
0.00235681
0.0023569
0.00235791
0.00235683
0.00235578
0.00235575
0.00235866
0.00235921
0.00244565
0.00246164
0.00246496
0.00246775
0.00247027
0.0023892
0.00238736
0.00238328
0.00237328
0.00235199
0.0023018
0.00229407
0.00229236
0.00229419
0.00229694
0.00240922
0.00240489
0.00239997
0.00239365
0.00237363
0.00242003
0.00244695
0.00245679
0.00246424
0.00247014
0.00255945
0.00255477
0.00254716
0.00253066
0.00248964
0.00243006
0.00245349
0.00246774
0.00247633
0.00248157
0.00255981
0.00255386
0.00254684
0.00253916
0.00251826
0.00250786
0.00252366
0.00253023
0.00253488
0.00253826
0.00245274
0.00245
0.00244737
0.00244436
0.00242945
0.00237423
0.00236879
0.00236778
0.0023698
0.00237181
0.00227692
0.00227137
0.00226463
0.00226162
0.00227289
0.00228745
0.00230608
0.00231043
0.00231087
0.00231135
0.00218903
0.00219112
0.00219262
0.00219186
0.00218131
0.0021817
0.00219844
0.00219913
0.00219581
0.0021924
0.00205616
0.00205172
0.00204689
0.00204607
0.00207112
0.0020766
0.00207976
0.0020826
0.00207027
0.00206644
0.0020617
0.00205459
0.00204597
0.00205266
0.00205076
0.00205543
0.00206067
0.00206457
0.00209
0.00209077
0.00209112
0.00209141
0.00209154
0.00207266
0.00207071
0.00207044
0.00207067
0.00207067
0.00202633
0.0020223
0.00201697
0.00201319
0.00202498
0.00202958
0.00203342
0.00203728
0.00210277
0.00209905
0.00209713
0.00209497
0.0020726
0.00207002
0.00207213
0.00207499
0.00210904
0.00211326
0.00211902
0.00212501
0.00212996
0.0020849
0.00208958
0.00207084
0.00205167
0.00190458
0.00197582
0.00209712
0.00206022
0.00202187
0.00204886
0.00208921
0.00210643
0.0018315
0.00197205
0.00196573
0.00179958
0.00188687
0.00195561
0.00202009
0.0019925
0.0021022
0.00206585
0.00211
0.00220668
0.00229143
0.00213447
0.00210597
0.00217206
0.00221685
0.00214671
0.00203622
0.00204899
0.00201182
0.00230399
0.00255988
0.00273068
0.00279297
0.00273687
0.00257869
0.00236288
0.00212267
0.00190177
0.00176151
0.0018069
0.00181957
0.00181861
0.00181538
0.00194898
0.00194212
0.00193468
0.00193038
0.00192583
0.00213759
0.00220409
0.00222099
0.00222208
0.00222052
0.00230623
0.00229798
0.00228837
0.00228089
0.00226264
0.00221741
0.00226729
0.00227902
0.00228461
0.00228878
0.00228691
0.00228507
0.00227977
0.00226467
0.00221008
0.00238516
0.00239869
0.00240465
0.00241354
0.00242156
0.00236579
0.00236457
0.00236005
0.00234474
0.00229295
0.00221583
0.00223015
0.00223724
0.00224151
0.00224347
0.0023708
0.00236622
0.00236208
0.00236157
0.00236217
0.00233722
0.00233526
0.00234166
0.00234858
0.00235356
0.00234971
0.00234814
0.00234427
0.00233597
0.00232509
0.00227336
0.00229232
0.00229932
0.00230102
0.00230103
0.00219701
0.00219416
0.00219071
0.0021897
0.00219466
0.0022527
0.0022437
0.00223837
0.00223545
0.00223419
0.00213978
0.00213458
0.00212923
0.00213081
0.00215892
0.00213039
0.0021191
0.00212123
0.00212529
0.00212804
0.00214573
0.00215029
0.00215761
0.00216627
0.00216851
0.00205727
0.00204438
0.00204629
0.00204906
0.00205068
0.00200775
0.00200562
0.00200234
0.00200096
0.00201576
0.00201931
0.00201418
0.00201466
0.00201517
0.00201451
0.00204776
0.00204411
0.0020391
0.00203524
0.00203749
0.00198243
0.00200451
0.00201244
0.00202206
0.00203143
0.00203941
0.00201951
0.00201238
0.00200187
0.00199034
0.00201267
0.00201361
0.00201602
0.00201789
0.00204743
0.00204544
0.00204344
0.00203939
0.00203118
0.00202236
0.00206541
0.00208345
0.00207639
0.00202788
0.00193607
0.00203047
0.00198724
0.00186788
0.00201667
0.00203709
0.00188564
0.00168942
0.00177826
0.00195394
0.00186554
0.00166456
0.0018225
0.00188657
0.00193276
0.00192037
0.00195785
0.00197597
0.00200517
0.0019582
0.00164752
0.0018514
0.00185713
0.001651
0.00162482
0.00169934
0.00179045
0.00198227
0.00217255
0.00231014
0.00236202
0.00230377
0.00214178
0.00190698
0.00164899
0.00141381
0.0013064
0.00136066
0.00136869
0.0013641
0.00135865
0.00147103
0.00146441
0.00145784
0.00145421
0.00144541
0.00174734
0.00180379
0.00181552
0.00181304
0.00180818
0.00193336
0.00192502
0.00191576
0.00191073
0.00190586
0.00208936
0.00210348
0.00211011
0.0021164
0.00212109
0.00202368
0.00201762
0.00201183
0.00201212
0.00201137
0.00216715
0.00215336
0.00215161
0.00215612
0.00216089
0.00207907
0.00207622
0.00207588
0.00208317
0.0020883
0.00218443
0.00215524
0.00214416
0.00214351
0.00214516
0.00215531
0.0021535
0.0021506
0.00214916
0.0021605
0.00228764
0.00228805
0.00228321
0.00228179
0.00228281
0.0022322
0.00223134
0.00223161
0.00223876
0.002268
0.00219041
0.00219043
0.00218323
0.00218007
0.00217917
0.00215907
0.00216057
0.00216439
0.00217393
0.0021897
0.0021147
0.00210236
0.00210126
0.00210348
0.00210549
0.00217208
0.00217192
0.00217117
0.00216851
0.00215976
0.00219515
0.00216295
0.00221865
0.00221755
0.00214763
0.00214871
0.00215267
0.00215491
0.00215527
0.00207583
0.00207389
0.00207227
0.00207606
0.00209941
0.00205216
0.00204842
0.00205129
0.00205191
0.0020515
0.00203471
0.00203346
0.00203125
0.00202879
0.00203707
0.00202587
0.0020298
0.00203095
0.00203074
0.00203036
0.00197848
0.00197884
0.0019796
0.00198397
0.00200592
0.00215756
0.00215116
0.00213679
0.00212623
0.00212039
0.00208756
0.00209083
0.00209756
0.00211379
0.00216482
0.00206725
0.00207881
0.00207058
0.00206784
0.00206643
0.00206727
0.00201838
0.00201996
0.0020235
0.0020352
0.00195855
0.00196879
0.0019742
0.00197748
0.00209677
0.00209387
0.00209037
0.00208118
0.00205564
0.00193674
0.00199973
0.00212299
0.00202396
0.00193401
0.00192655
0.00210144
0.00195266
0.00194298
0.00197275
0.001983
0.00198461
0.00198375
0.00189372
0.00189326
0.00189166
0.00189078
0.00190034
0.0019527
0.00198517
0.00198818
0.00198614
0.00198358
0.00202069
0.00202788
0.00203428
0.00202986
0.00197657
0.00196524
0.00200834
0.00202963
0.00203592
0.00204032
0.00204603
0.00201049
0.00201314
0.00201406
0.00200691
0.00194535
0.00195257
0.00196174
0.00196793
0.00206376
0.00205765
0.00205012
0.002039
0.00202337
0.00196214
0.00205981
0.00206223
0.00203352
0.00196219
0.00177804
0.00194623
0.00190803
0.00167557
0.00163684
0.00185422
0.00178984
0.0015601
0.00180284
0.00187715
0.00194491
0.00198681
0.0018376
0.00185444
0.00190352
0.00187855
0.00184661
0.00193305
0.00199452
0.00193055
0.00205459
0.00204723
0.00199464
0.00194861
0.00187993
0.00200046
0.00193994
0.00177965
0.00205659
0.00206726
0.00205555
0.00208618
0.00202692
0.00202843
0.00200232
0.00203268
0.00167826
0.00184784
0.00189375
0.00166423
0.00173564
0.00190503
0.00195448
0.00196954
0.00185353
0.00193874
0.00188237
0.00175154
0.00173823
0.00188186
0.00191983
0.00169847
0.00175744
0.00193853
0.00194573
0.00173376
0.00182278
0.00197096
0.00199076
0.00186923
0.0017586
0.0019745
0.00194054
0.00168703
0.00192083
0.00191437
0.0018837
0.00184358
0.00176443
0.00175453
0.00175753
0.00175908
0.00198258
0.00198288
0.00198354
0.00199166
0.00204285
0.00227211
0.0022148
0.00219436
0.00218379
0.00217834
0.00197206
0.00196721
0.00196236
0.00197158
0.00204877
0.002233
0.00220492
0.00219007
0.00218278
0.00217942
0.00213146
0.00212762
0.00212393
0.00212906
0.00218129
0.00210381
0.00208138
0.00196358
0.00192524
0.00187333
0.00186557
0.00186703
0.00186774
0.00206124
0.00206307
0.00206394
0.00206387
0.00208374
0.00226599
0.00222961
0.00221514
0.00221077
0.00220967
0.00212126
0.00211721
0.00211252
0.00211567
0.00215931
0.00230399
0.00229732
0.00228997
0.00228647
0.00228488
0.00220004
0.00219971
0.00219938
0.00220334
0.00223689
0.0022264
0.00220654
0.00212455
0.00207919
0.00200552
0.00196897
0.00196586
0.00196769
0.00196909
0.00215355
0.00215444
0.00215831
0.00217036
0.00218606
0.00225742
0.00224852
0.00224083
0.00223919
0.00223991
0.00225894
0.00225709
0.00225408
0.0022507
0.00225532
0.00228363
0.0022879
0.00229159
0.00229184
0.0022912
0.00231329
0.00242221
0.00238866
0.00227782
0.00211692
0.00201321
0.00203097
0.0020384
0.00203791
0.00203554
0.00218222
0.00217818
0.00217674
0.00218275
0.00219154
0.00223068
0.00224248
0.0022463
0.00225238
0.00225859
0.00213746
0.00214081
0.00214126
0.00212843
0.00208424
0.00190167
0.00187941
0.00187666
0.00188195
0.00188738
0.0017355
0.00173993
0.00174295
0.00173517
0.00171286
0.00148927
0.00147506
0.00146742
0.00146698
0.00146855
0.00148035
0.00147714
0.00147423
0.00147596
0.0014849
0.00122854
0.00122194
0.00122293
0.00122837
0.0012338
0.00120149
0.00120112
0.00120256
0.00120605
0.0012057
0.00104226
0.00102892
0.00103021
0.00103264
0.00103489
0.000957464
0.000951608
0.0009479
0.000951149
0.000975655
0.00122599
0.00124633
0.00124985
0.00124439
0.0012375
0.00136794
0.00136192
0.00135615
0.00135777
0.00137705
0.00160222
0.00159258
0.00159352
0.00159861
0.001604
0.00180599
0.00181075
0.00181465
0.00180885
0.00177423
0.00188328
0.00191371
0.00192143
0.00192185
0.00192163
0.0018212
0.00182383
0.0018249
0.00182092
0.00182502
0.00190244
0.00188365
0.00188539
0.00188939
0.0018929
0.00200282
0.00200346
0.00200353
0.00199985
0.00199017
0.00196395
0.00194437
0.00194189
0.00194199
0.00194132
0.00214821
0.00214946
0.002155
0.00216455
0.00217366
0.00193737
0.00191499
0.00191489
0.00191802
0.00191982
0.00197093
0.00197169
0.0019726
0.00197192
0.00196795
0.00195978
0.00193394
0.00192901
0.0019283
0.00192816
0.00207051
0.00207529
0.0020849
0.00210149
0.00211479
0.00212473
0.00209105
0.00207814
0.00207283
0.00207046
0.00188115
0.00187867
0.00187482
0.00187185
0.00188428
0.00189959
0.00188601
0.00188704
0.00188894
0.00188983
0.00211943
0.00212899
0.0021458
0.00216978
0.00217608
0.00222918
0.00224226
0.00222298
0.00220664
0.00219692
0.00220557
0.00220824
0.00221509
0.00222809
0.00222987
0.00230669
0.00229186
0.0022908
0.00229005
0.00229153
0.00207564
0.00207156
0.00206586
0.00206216
0.00206522
0.00193243
0.00194356
0.00198351
0.002
0.00201486
0.00202707
0.00206285
0.00206041
0.00205543
0.00203341
0.00214995
0.00214923
0.0021493
0.00215049
0.00212991
0.0021222
0.00211677
0.0021153
0.00213153
0.00214119
0.00205656
0.00210207
0.00198795
0.00189153
0.00213963
0.00207536
0.00201604
0.00194544
0.00179739
0.00191813
0.00190182
0.00180634
0.001852
0.00184464
0.00193486
0.00196219
0.0019097
0.00195225
0.00197572
0.00191447
0.00182358
0.00194202
0.00191488
0.0017744
0.00181021
0.00190106
0.00185771
0.00180395
0.00190806
0.0016354
0.0014572
0.00130574
0.00122916
0.00121412
0.00121859
0.00120539
0.00116415
0.00110684
0.00103084
0.000938755
0.000834325
0.000730687
0.000625876
0.000708882
0.000699039
0.000698687
0.000701175
0.000703251
0.000854265
0.000865621
0.00087795
0.000884389
0.000875311
0.000928359
0.000931031
0.000928764
0.000923618
0.000918726
0.00087764
0.000887872
0.000898216
0.000903392
0.000909755
0.00114386
0.00109892
0.00108875
0.00109089
0.00109562
0.001254
0.00126262
0.00127028
0.00126926
0.00126679
0.00154108
0.00151959
0.00150914
0.00150928
0.00151106
0.00171407
0.00171179
0.00171306
0.0017255
0.00176152
0.00160586
0.00161292
0.00161339
0.00161172
0.0016094
0.00156044
0.00156473
0.00156741
0.00156903
0.00159101
0.00190834
0.00188638
0.00186929
0.00186384
0.00186318
0.00193513
0.00193555
0.00193964
0.00195659
0.0020126
0.00173281
0.00173909
0.00174004
0.00173936
0.00173841
0.00175063
0.00175263
0.0017553
0.00176028
0.00178195
0.00201319
0.00200943
0.00199269
0.00198251
0.00197787
0.00195839
0.00196084
0.00196725
0.00198414
0.00203171
0.00175816
0.00175078
0.001752
0.00175409
0.00175461
0.00181971
0.00182046
0.00182121
0.00182076
0.00181971
0.00188703
0.00186314
0.00185659
0.00185364
0.0018518
0.00207222
0.00208225
0.00209871
0.00211858
0.00211426
0.00179589
0.00179995
0.00180641
0.00180957
0.00181091
0.00184724
0.00184423
0.00183698
0.00182237
0.00180554
0.00181774
0.00183496
0.00185264
0.00186439
0.00187069
0.00195892
0.00195202
0.00194015
0.00191916
0.00188558
0.00179005
0.00183466
0.00185772
0.00186925
0.00187506
0.00212846
0.00212323
0.00211478
0.00209307
0.00202076
0.00219026
0.00222304
0.00222195
0.00221884
0.00221805
0.00209967
0.00210364
0.00210697
0.00210098
0.00202889
0.0020362
0.00204782
0.00205888
0.00211745
0.00210239
0.00208569
0.00207105
0.00207768
0.00209225
0.00209554
0.00209603
0.00232877
0.00232547
0.00232201
0.00230662
0.00220561
0.00199791
0.00206289
0.00206033
0.00191083
0.00188268
0.00206486
0.00205577
0.00187705
0.00194397
0.00210727
0.00213829
0.00215145
0.00215762
0.00216398
0.00203722
0.00202627
0.00200822
0.00198771
0.00226968
0.00229235
0.00229228
0.00229223
0.0021741
0.00216894
0.00216071
0.00214535
0.0021241
0.0022867
0.00227891
0.00227872
0.00227174
0.00226771
0.00228498
0.00228069
0.00227554
0.0022649
0.00232626
0.00203417
0.0020557
0.00205762
0.00206207
0.00206944
0.00207646
0.00215881
0.00216056
0.00216096
0.00214577
0.00205726
0.0020832
0.00209294
0.00210004
0.00204764
0.00203963
0.00203067
0.00202071
0.0019904
0.00189428
0.00183258
0.00205317
0.00199638
0.00200608
0.00200315
0.00193103
0.00191647
0.00190686
0.00207479
0.00199409
0.00190151
0.00191972
0.00197231
0.00189539
0.00196212
0.00193931
0.00190956
0.00164284
0.00128888
0.000931294
0.000676064
0.000579252
0.000633574
0.000758339
0.000854908
0.000861296
0.00077898
0.000652051
0.000570461
0.000498433
0.000462267
0.0004014
0.000428184
0.000413466
0.000405649
0.000398265
0.000392216
0.000463745
0.000464689
0.000468374
0.000479457
0.00051489
0.000563335
0.000551109
0.000544311
0.000535038
0.000525753
0.000675134
0.00067736
0.000683241
0.000699319
0.000729188
0.000937818
0.000892723
0.000872007
0.000863468
0.000859456
0.000979735
0.0009876
0.000994038
0.000996195
0.0010089
0.00134609
0.00130728
0.00128772
0.00128265
0.00128332
0.00148502
0.00148732
0.00149386
0.00151551
0.00158524
0.00133739
0.00134225
0.0013417
0.00134023
0.00133936
0.00136149
0.001366
0.00136955
0.00137337
0.00139803
0.00176351
0.00174331
0.00172144
0.00170891
0.00170375
0.00176862
0.00177113
0.0017779
0.00179743
0.00185839
0.00150337
0.00151289
0.00151457
0.00151459
0.00151367
0.00160446
0.00160732
0.00161094
0.00161663
0.00163551
0.00189164
0.00188966
0.00187004
0.00185524
0.00184773
0.00186771
0.00187484
0.00188897
0.00191173
0.0019252
0.00200669
0.0019754
0.00195537
0.00194406
0.00193853
0.00164426
0.00164271
0.00163661
0.00162409
0.00161644
0.00169062
0.00169776
0.00170781
0.00171419
0.00171666
0.00183276
0.00183002
0.00182636
0.00182219
0.00180928
0.00191321
0.00193906
0.00194399
0.00194514
0.00194562
0.00206096
0.00206042
0.00205899
0.00205273
0.00202109
0.00199717
0.002024
0.00202983
0.00203161
0.0020317
0.00206275
0.00205453
0.0020405
0.00201642
0.00197285
0.00204448
0.00204883
0.00205865
0.00206676
0.00207169
0.00221496
0.00222021
0.00222795
0.00222907
0.00217621
0.00208291
0.0021701
0.00217908
0.00217692
0.0021748
0.0020904
0.00208653
0.00208086
0.00207211
0.00202418
0.00213689
0.00213932
0.00213574
0.00213395
0.00213635
0.00211303
0.00197006
0.00200508
0.0019648
0.0020489
0.00219479
0.00182335
0.00199426
0.00221674
0.00185294
0.00218596
0.00291594
0.00203846
0.00217958
0.00225345
0.00254767
0.00201487
0.00165125
0.0011587
0.000746091
0.000470911
0.000405239
0.000494184
0.000635707
0.00072582
0.000704148
0.000601837
0.000486676
0.000398562
0.000368372
0.000330313
0.000430981
0.000434888
0.000431414
0.000427768
0.000425538
0.000333425
0.000340015
0.0003446
0.000345638
0.000352187
0.000592691
0.000583383
0.000565601
0.000551413
0.000542706
0.000782118
0.000791533
0.000804066
0.00081675
0.000836209
0.000779429
0.00076099
0.000758249
0.000753736
0.000748056
0.00113873
0.00114909
0.00116794
0.00119691
0.00122839
0.00139816
0.00136069
0.00134401
0.00133203
0.00132405
0.00126664
0.00127043
0.0012742
0.00127878
0.00130103
0.00168159
0.00165813
0.00163181
0.00161513
0.00160664
0.00168205
0.00168775
0.00169731
0.00171164
0.00173437
0.00136232
0.00134907
0.00135271
0.00135778
0.00136078
0.00148666
0.00148656
0.00148633
0.00148685
0.00149875
0.0015777
0.00158094
0.00157966
0.00157666
0.00157411
0.00166761
0.00167579
0.00168461
0.00168415
0.00165009
0.00170739
0.00174097
0.00173755
0.00172602
0.0017148
0.00193652
0.00194406
0.00195549
0.00195929
0.00190877
0.00191958
0.00194713
0.00195036
0.00195132
0.00195135
0.00196931
0.00196802
0.00196371
0.0019533
0.00190841
0.00204372
0.00208738
0.00209927
0.00210513
0.00210872
0.00218871
0.00219005
0.00219122
0.00218694
0.00214661
0.00220779
0.00222669
0.00223142
0.00223641
0.0022405
0.00232422
0.00233029
0.00233912
0.0023358
0.00225353
0.0020642
0.00203018
0.00204008
0.00206041
0.00207505
0.00236539
0.00236172
0.00235663
0.00234865
0.00230725
0.0022623
0.00224537
0.00224477
0.00224903
0.00225214
0.00223301
0.00223907
0.00224627
0.00223976
0.00216765
0.002016
0.00212709
0.00213632
0.00212916
0.00212222
0.00225198
0.00225857
0.00227007
0.00226512
0.00213686
0.0018905
0.00191529
0.00192706
0.00193509
0.00193987
0.00208314
0.00208712
0.00208964
0.00208038
0.00204173
0.0020389
0.00193848
0.00192759
0.00204152
0.00205709
0.0019201
0.00197668
0.00198646
0.00199
0.00199114
0.00206294
0.00206475
0.00206688
0.00206592
0.00201013
0.00196911
0.00199439
0.00195253
0.00192085
0.00190716
0.00194093
0.00196002
0.00196428
0.00189994
0.00195921
0.00199723
0.00197624
0.00197991
0.00219187
0.00207057
0.00201821
0.00207044
0.00201876
0.0019947
0.0019542
0.00187113
0.00189744
0.00196843
0.00201752
0.00201978
0.00207417
0.00204705
0.0020106
0.00200467
0.00198559
0.0019882
0.00204634
0.00210597
0.00205404
0.00202436
0.00198106
0.00193462
0.00192438
0.00198708
0.00201446
0.00200583
0.00196259
0.0019875
0.00198917
0.00194242
0.00193636
0.00197751
0.00194849
0.0019195
0.00189837
0.00194526
0.00193995
0.00186544
0.00186908
0.00196721
0.00190848
0.00184763
0.00191772
0.00193487
0.00197285
0.00200885
0.00198715
0.00195757
0.0019337
0.00196267
0.00198884
0.00192879
0.00195267
0.00199688
0.00195142
0.00195626
0.00194412
0.00195778
0.0020699
0.00196637
0.00198113
0.00207997
0.00188837
0.00186163
0.00168432
0.00146231
0.00118356
0.000912614
0.000812905
0.000856711
0.00116098
0.00126899
0.00154985
0.00168804
0.00171157
0.00172349
0.00173238
0.00202178
0.00203713
0.0020543
0.00206254
0.00203208
0.00147533
0.0015272
0.00153571
0.001536
0.00153256
0.00215716
0.00217741
0.00220326
0.00221659
0.00219711
0.00160164
0.00155746
0.001553
0.00155576
0.00155621
0.00219789
0.00221835
0.00224873
0.00228041
0.002268
0.00226365
0.00232218
0.00232387
0.00231191
0.00230054
0.00168881
0.00169083
0.00168875
0.00168276
0.0016661
0.00161886
0.00165356
0.00165096
0.00164759
0.0016447
0.00202909
0.00203848
0.00205153
0.00207179
0.0021509
0.00167894
0.00162589
0.00162139
0.00162349
0.00162258
0.00175668
0.00175868
0.001762
0.00177163
0.00181425
0.00218717
0.0021007
0.00207257
0.00206005
0.00205266
0.0019768
0.00198503
0.00200033
0.00202865
0.00206159
0.0021329
0.00205105
0.00202902
0.00202163
0.00201832
0.00198298
0.00198716
0.00199797
0.00202177
0.00206541
0.00202857
0.00198244
0.00197642
0.00197872
0.00198151
0.0017397
0.00169762
0.00169293
0.00169321
0.00169209
0.0017648
0.00176528
0.00176451
0.0017666
0.00179308
0.00205853
0.00202684
0.00200607
0.00199664
0.00199369
0.00196815
0.00196575
0.00196627
0.00198247
0.00205766
0.00206402
0.00206098
0.00206404
0.00206459
0.00206383
0.00211133
0.0021114
0.0021111
0.0021088
0.00210436
0.002183
0.00209728
0.0019398
0.00172792
0.00162984
0.00162281
0.00162492
0.00162282
0.00161899
0.00184649
0.00184784
0.00185246
0.00187064
0.00190629
0.00191238
0.00189121
0.00188174
0.00188119
0.00188277
0.00168767
0.00169282
0.00169764
0.00169433
0.00168368
0.0015216
0.00149971
0.00148645
0.00148166
0.00148006
0.00124499
0.00124533
0.00124979
0.00126586
0.00129606
0.00125038
0.00123052
0.00122293
0.00122223
0.00122319
0.00107335
0.00108199
0.00109071
0.00109314
0.0010894
0.00114865
0.00117888
0.00117859
0.00116741
0.00115601
0.000821847
0.000819362
0.000818428
0.000823979
0.000844087
0.000870819
0.0008523
0.000852442
0.000856874
0.000860335
0.000809041
0.000810741
0.00081354
0.000819507
0.00083791
0.000853633
0.000863898
0.00085733
0.000845906
0.000836493
0.000593239
0.000591233
0.000589501
0.000591578
0.0006061
0.000592035
0.00055677
0.000551056
0.000551709
0.000552913
0.000550603
0.000553755
0.000557741
0.000563078
0.000578999
0.000579331
0.000572557
0.000564475
0.000554685
0.000546326
0.000587328
0.00058725
0.000589157
0.000598672
0.00063188
0.00076615
0.000733614
0.000723557
0.000722124
0.00072237
0.000633804
0.000553701
0.000587057
0.000567489
0.000559518
0.00055392
0.000549728
0.00046775
0.000461688
0.000495165
0.000497455
0.000493782
0.000487477
0.000481895
0.000471919
0.000470133
0.000469793
0.000475514
0.000505292
0.000455204
0.000449699
0.000446487
0.000442065
0.000438111
0.000381832
0.000381734
0.000382236
0.000385171
0.000397828
0.000341635
0.000330032
0.000326957
0.00032834
0.000330073
0.000371221
0.000373393
0.000377513
0.000388079
0.00041492
0.000441011
0.000430602
0.000426107
0.000419003
0.000411949
0.000559335
0.000562889
0.000571296
0.000588825
0.000616737
0.000833136
0.000784228
0.000765102
0.000755214
0.000748933