/*--------------------------------*- C++ -*----------------------------------*\
  =========                 |
  \\      /  F ield         | OpenFOAM: The Open Source CFD Toolbox
   \\    /   O peration     | Website:  https://openfoam.org
    \\  /    A nd           | Version:  7
     \\/     M anipulation  |
\*---------------------------------------------------------------------------*/
FoamFile
{
    version     2.0;
    format      ascii;
    class       volVectorField;
    location    "6.5";
    object      wallShearStress;
}
// * * * * * * * * * * * * * * * * * * * * * * * * * * * * * * * * * * * * * //

dimensions      [0 2 -2 0 0 0 0];

internalField   uniform (0 0 0);

boundaryField
{
    outlet1
    {
        type            calculated;
        value           uniform (0 0 0);
    }
    Wall
    {
        type            calculated;
        value           nonuniform List<vector> 
40276
(
(0.000419283 4.97128e-05 0.000169535)
(-0.000186927 -8.51338e-06 0.000415686)
(-0.000190637 -7.76587e-06 0.000407607)
(9.99482e-05 -2.11226e-05 0.000157474)
(8.46671e-05 1.05964e-05 0.000154448)
(8.28041e-05 5.48609e-05 0.00016074)
(9.80402e-05 4.73584e-05 0.000171287)
(0.000136947 3.61402e-05 0.000190616)
(0.000106458 2.38533e-05 0.000173323)
(0.000102462 9.1132e-06 0.000175206)
(0.000391755 3.90824e-05 0.000415641)
(0.000473612 1.62357e-05 0.000451066)
(0.000584488 4.0541e-05 0.000939411)
(0.000562517 3.93189e-05 0.000870238)
(0.000479578 -1.49045e-05 0.000330276)
(0.000428922 2.29597e-06 0.000359557)
(0.000389846 2.18251e-05 6.24979e-05)
(0.000349419 2.42088e-05 2.75258e-05)
(-0.000105295 -1.14883e-05 -0.000161852)
(-0.000113477 -4.02489e-05 -0.000180095)
(-0.000153595 3.88244e-05 0.000211868)
(-0.000184683 4.38482e-05 0.000198783)
(-0.000119596 3.21665e-05 6.80608e-05)
(-0.000138481 2.95993e-05 6.43848e-05)
(-0.000100039 2.37151e-05 4.34613e-05)
(-0.000112341 2.47675e-05 3.76724e-05)
(-0.000122416 4.07619e-05 2.14256e-05)
(-0.000119971 4.11932e-05 1.5629e-05)
(-0.000180304 5.82031e-05 3.26731e-05)
(-0.000161657 4.98992e-05 2.38697e-05)
(-0.000121144 3.95339e-05 7.20456e-05)
(-0.00013568 4.74058e-05 7.95422e-05)
(-5.25677e-05 -3.17582e-06 0.000159665)
(-4.68108e-05 -4.86466e-06 0.000148393)
(-6.17422e-05 1.02519e-05 7.9901e-06)
(-6.06751e-05 1.16374e-05 7.55517e-06)
(0.000568887 6.50711e-05 0.000207359)
(0.000617977 4.60307e-05 0.000227519)
(0.00106374 0.000256698 0.000390566)
(0.00120535 0.000330728 0.00041287)
(0.000991352 6.12684e-05 0.00015131)
(0.000948924 3.30519e-05 0.000178215)
(-4.87901e-05 -1.44168e-05 -0.000390752)
(-2.85827e-05 -1.10201e-05 -0.00035527)
(-5.24249e-05 -2.06412e-06 -0.000356354)
(-4.44412e-05 -6.20457e-06 -0.00029387)
(-7.37005e-05 -2.93619e-07 -0.000301871)
(-5.64828e-05 -3.19145e-06 -0.000244483)
(-6.58418e-05 -7.91879e-07 -0.000211329)
(-6.43628e-05 1.1233e-06 -0.00017656)
(-5.30088e-05 -1.18761e-06 -0.000145527)
(-6.53185e-05 1.44133e-06 -0.000152689)
(-5.67509e-05 -1.85914e-07 -0.000122508)
(-5.99471e-05 2.32177e-06 -0.000124025)
(0.000441649 8.05895e-05 0.000258509)
(0.000459681 9.45735e-05 0.000227413)
(-1.85912e-05 1.3701e-05 0.000133014)
(6.40833e-05 2.19728e-05 0.000190991)
(-1.15825e-05 9.09151e-06 0.000135808)
(-0.000464603 -0.000143324 -0.000444574)
(-0.000493127 -0.000119072 -0.000454126)
(1.90498e-05 3.45135e-05 0.000291407)
(-1.27909e-05 -1.18262e-05 0.00022525)
(9.93433e-06 -9.77202e-07 -4.44443e-05)
(1.26735e-05 2.7195e-06 -4.10535e-05)
(6.31615e-06 1.16125e-08 -4.02809e-05)
(1.93678e-06 -2.52293e-06 -3.90186e-05)
(1.0816e-05 7.27437e-08 -4.14444e-05)
(-0.000118445 -1.87783e-05 -0.000107819)
(-0.000130595 -8.04524e-06 -0.000117095)
(-5.46715e-05 4.43207e-06 -0.000101977)
(-5.54625e-05 6.49918e-08 -0.000103792)
(-1.88653e-05 1.41987e-06 -1.93615e-05)
(-1.88703e-05 1.43601e-06 -1.90475e-05)
(-1.70542e-05 1.4956e-06 -1.85849e-05)
(-1.61902e-05 1.82815e-06 -1.78752e-05)
(-1.84402e-05 8.31741e-07 -1.84518e-05)
(2.24955e-05 -1.56485e-06 -6.50963e-06)
(1.94885e-05 -1.65147e-06 -1.0205e-05)
(-5.07989e-07 4.38749e-06 2.19126e-07)
(2.76374e-07 -1.44034e-07 1.68813e-07)
(8.02017e-06 -9.87781e-07 -4.38564e-07)
(1.91497e-05 3.5395e-07 1.31567e-05)
(1.85826e-05 4.60563e-07 1.35091e-05)
(2.82921e-05 -2.16407e-06 1.98902e-05)
(5.67721e-06 4.95849e-07 -3.53815e-05)
(1.53676e-06 -1.73456e-06 -3.39835e-05)
(4.72061e-06 9.14907e-07 -3.06527e-05)
(2.55393e-05 -2.31968e-06 1.84498e-05)
(2.47827e-05 -1.91477e-06 1.79056e-05)
(2.13513e-05 -1.28909e-06 1.59279e-05)
(-4.44893e-05 -4.7912e-06 -4.02582e-05)
(7.5413e-07 -1.07218e-06 -2.95093e-05)
(3.78934e-06 1.19172e-06 -2.66301e-05)
(2.41047e-07 -5.34303e-07 -2.57747e-05)
(-2.84813e-07 -2.99128e-07 -2.23672e-05)
(-7.81745e-07 5.55573e-08 -1.94374e-05)
(-1.49666e-06 1.98563e-07 -1.74062e-05)
(-4.67946e-06 -2.89243e-07 -1.38713e-05)
(-5.3254e-06 -1.10455e-07 -1.30443e-05)
(-6.1478e-06 -1.40189e-09 -1.27292e-05)
(-9.28326e-06 -2.67252e-07 -1.32933e-05)
(-9.55921e-06 -1.99061e-07 -1.37757e-05)
(-4.99523e-05 -1.01825e-06 -4.3825e-05)
(-9.8769e-06 -3.11526e-08 -1.46823e-05)
(-1.86804e-05 -4.01744e-06 -2.27882e-05)
(-1.55587e-05 -3.97991e-06 -1.82012e-05)
(-9.79368e-06 -1.2055e-07 -1.53518e-05)
(-9.75187e-06 3.37246e-08 -1.64354e-05)
(-9.3968e-06 -5.43202e-07 -1.6839e-05)
(-9.60843e-06 3.97564e-08 -1.7923e-05)
(-9.09942e-06 -6.0399e-07 -1.87244e-05)
(-8.57256e-06 -2.6094e-07 -1.91622e-05)
(-8.33958e-06 -1.03472e-06 -2.06972e-05)
(-8.05921e-06 -1.61906e-06 -1.94249e-05)
(4.15736e-06 -8.89294e-07 -2.63634e-05)
(4.00113e-06 -2.89358e-06 -2.7754e-05)
(2.51308e-06 -2.90542e-06 -2.62091e-05)
(-0.000276583 -6.29465e-05 0.000486817)
(-0.000279606 -6.14338e-05 0.000441432)
(-1.46518e-05 -1.24374e-06 5.41027e-06)
(-1.24104e-05 -1.4273e-06 6.74618e-06)
(-4.10302e-05 -1.83317e-06 1.66777e-05)
(-3.53682e-05 -3.1366e-06 1.54408e-05)
(-4.33062e-06 -8.97137e-06 -5.36927e-06)
(-2.07064e-06 -8.86024e-06 -2.67007e-06)
(-0.000127438 2.52882e-05 0.000183988)
(-0.000110658 3.40173e-05 0.000156485)
(-0.0001602 -1.76739e-05 0.000274301)
(-0.000139976 -2.37293e-05 0.000236124)
(-0.000102886 -6.08171e-06 0.000172749)
(-9.00187e-05 -9.13917e-06 0.000148684)
(-0.000156381 9.38701e-05 0.000466978)
(-0.00021676 0.00016934 0.000652705)
(7.45113e-06 -1.1888e-05 0.000188645)
(-1.20644e-06 -4.63365e-06 0.000159413)
(-0.000102137 2.7567e-05 0.000193056)
(-5.57617e-05 1.31507e-06 0.000167473)
(-0.000180243 -5.68204e-05 0.000490817)
(-0.000179975 -3.98519e-05 0.000491509)
(-0.000179831 -4.49215e-05 0.000525661)
(-0.000195633 -2.11246e-05 0.000527207)
(-0.000559998 1.79799e-06 -0.000151446)
(-0.000642599 2.50649e-06 -0.000183642)
(-2.27555e-05 -7.96783e-05 9.95797e-06)
(-2.65497e-05 -7.89422e-05 1.1924e-05)
(-2.14493e-05 -4.38748e-05 6.54982e-05)
(-2.52131e-05 -5.36643e-05 8.18398e-05)
(-2.90504e-05 -5.25588e-05 6.60951e-05)
(-2.32198e-05 -4.04617e-05 5.37556e-05)
(-1.54687e-05 -8.61463e-05 8.48782e-06)
(-1.98961e-05 -9.83539e-05 6.53326e-06)
(-2.34957e-05 -8.34769e-05 8.81936e-06)
(-2.18833e-05 -8.64845e-05 9.21273e-06)
(-2.31359e-05 -0.000128636 -1.56103e-05)
(-1.99742e-05 -0.000111411 -1.41258e-05)
(-7.64299e-06 -5.66219e-05 -3.31689e-06)
(-9.87888e-06 -5.05372e-05 -4.7577e-06)
(-6.09806e-05 -3.12333e-05 9.45474e-05)
(-5.57691e-05 -3.30593e-05 8.93481e-05)
(8.96072e-05 3.86581e-06 -0.000233762)
(9.7636e-05 -5.03297e-06 -0.000218477)
(-0.000137192 -5.94808e-05 -1.25087e-05)
(-0.000136017 -6.64693e-05 -1.47035e-05)
(-0.000298707 -4.80497e-05 0.000146823)
(-0.000320623 -5.21937e-05 0.000138147)
(-0.00029171 -7.45964e-05 -2.60606e-05)
(-0.000285082 -6.18114e-05 -3.52677e-05)
(-0.000173922 0.000193104 0.000236813)
(-0.000167761 0.000241699 0.000219895)
(-0.00024912 -4.48519e-05 1.31769e-05)
(-0.000131168 -4.67522e-05 -1.84889e-05)
(-0.000206902 -7.75594e-05 7.47351e-05)
(-0.000178255 -7.59826e-05 6.31952e-05)
(-0.000227762 -5.1942e-05 5.88605e-05)
(-6.74221e-05 -4.22616e-05 -7.10697e-06)
(-3.91087e-05 -2.09146e-05 6.05102e-05)
(-3.22286e-05 -1.93927e-05 5.58639e-05)
(0.000557975 -0.000220609 0.000416279)
(0.000510027 -0.000192721 0.000346533)
(0.000494058 -0.000276838 0.000228217)
(0.00046368 -0.000204054 0.000257984)
(0.000473574 -0.000237878 0.000254333)
(0.000242906 -0.000160262 0.000185615)
(0.0003385 -0.000217368 0.000216746)
(0.000265262 -0.000160811 0.000199514)
(0.000435754 -0.000198926 0.000350955)
(0.000460122 -0.000243751 0.000335069)
(0.000452972 -0.000237697 0.000289762)
(0.000352612 -0.000237852 0.00018848)
(0.000456386 -0.000287187 0.000187547)
(0.000380393 -0.000213294 0.000241479)
(0.000147269 -8.05982e-05 0.00016084)
(0.000236017 -0.000162074 0.000185461)
(0.000182346 -9.74806e-05 0.000181483)
(0.000136456 -6.5694e-05 0.000165353)
(7.54864e-05 3.8927e-05 0.000154562)
(0.000281591 0.000110183 4.61502e-05)
(0.000342096 0.000109644 9.63831e-05)
(0.00029275 7.36372e-05 0.000108351)
(0.000309891 5.87439e-05 4.80349e-05)
(0.000369815 6.2616e-05 9.77963e-05)
(0.000333656 9.8067e-05 9.07192e-05)
(0.000299993 7.37274e-05 6.84969e-05)
(9.831e-05 5.02986e-05 9.52201e-05)
(0.000113631 6.13087e-05 9.28765e-05)
(9.39772e-05 9.08425e-06 0.000146817)
(9.80922e-05 1.3998e-05 0.000146415)
(0.000112377 7.22262e-06 0.000169152)
(9.26671e-05 -1.19353e-06 0.000151279)
(0.000102948 2.97732e-05 0.000144423)
(8.23467e-05 3.23469e-05 0.000111805)
(7.80306e-05 3.45022e-05 8.34042e-05)
(7.32345e-05 1.44308e-05 0.000101541)
(6.86783e-05 4.63486e-06 0.000115812)
(5.04446e-05 -5.03106e-06 9.20034e-05)
(6.5448e-05 -1.01122e-05 0.000109792)
(5.59952e-05 1.27826e-05 7.93813e-05)
(4.61056e-05 1.00512e-05 6.72341e-05)
(5.04668e-05 7.81229e-06 7.65145e-05)
(0.000151204 8.91423e-05 5.22335e-05)
(0.000181543 9.89584e-05 6.95912e-05)
(0.000185764 8.96718e-05 8.03952e-05)
(0.000177906 8.52614e-05 4.96896e-05)
(0.000111784 6.29708e-05 8.11184e-05)
(0.000127555 7.20485e-05 5.56702e-05)
(0.000135927 7.85464e-05 3.41578e-05)
(0.000138204 6.71654e-05 4.41555e-05)
(0.000120675 6.41167e-05 5.0011e-05)
(0.000264735 0.000108252 3.91916e-05)
(0.000217151 0.000102055 3.68418e-05)
(0.000281809 0.000100011 5.28204e-05)
(0.000256967 7.31162e-05 3.80895e-05)
(0.000228232 9.5005e-05 2.50857e-05)
(0.000209641 7.20252e-05 3.07431e-05)
(7.9203e-05 4.33969e-05 5.94149e-05)
(8.4523e-05 4.21796e-05 6.34643e-05)
(6.71691e-05 2.87188e-05 7.17388e-05)
(0.000101662 6.00143e-05 5.05066e-05)
(5.6701e-05 2.30763e-05 6.035e-05)
(6.7841e-05 3.92311e-05 3.9915e-05)
(0.000113916 6.03389e-05 5.88236e-05)
(0.000149556 7.6922e-05 2.7821e-05)
(7.27159e-05 4.73381e-05 1.21699e-05)
(8.51546e-05 4.57746e-05 2.90944e-05)
(7.39976e-05 4.65476e-05 2.34873e-05)
(0.000135614 7.95409e-05 9.10095e-06)
(0.000167223 8.40084e-05 -1.13275e-05)
(0.00015183 5.89274e-05 2.51021e-05)
(0.000147769 7.23253e-05 1.30698e-05)
(0.000313675 2.80101e-05 0.00054834)
(0.000351645 5.68788e-05 0.000637646)
(0.000319553 -1.5339e-06 0.000569955)
(0.000331069 2.85955e-05 0.00058578)
(0.00035746 9.99733e-05 0.000398488)
(0.000387111 0.000105591 0.000474083)
(0.00027709 9.53424e-05 0.000390179)
(0.000302943 8.96797e-05 0.000446987)
(0.0002946 0.000105253 0.000442409)
(0.000276399 8.71711e-05 0.000455458)
(0.000392168 0.00015631 0.000508762)
(0.000328925 0.000132447 0.000382588)
(0.000375206 0.000138483 0.000477125)
(0.000238406 8.99491e-05 0.000388639)
(0.000319911 0.00011604 0.000485275)
(0.000407749 0.000130237 0.000386541)
(0.000364587 0.000134711 0.000454608)
(0.000357902 0.00013172 0.000456065)
(0.000410906 0.000134976 0.000564144)
(0.000426906 0.000169417 0.000499726)
(0.000469895 0.000183418 0.000497085)
(0.000461002 0.000190749 0.000468347)
(0.000450806 0.000158251 0.000560028)
(0.000435593 0.000162715 0.000560047)
(0.000402333 7.38961e-05 0.000469817)
(0.000515235 7.95357e-05 0.000501942)
(0.000394644 9.32088e-05 0.000483207)
(0.000304645 9.47773e-05 0.000377093)
(0.000384997 9.14301e-05 0.000470943)
(0.000420957 7.12341e-05 0.00041084)
(0.0003157 5.64022e-05 0.000308616)
(0.000340318 0.000102284 0.000369445)
(0.000365721 8.43772e-05 0.000358872)
(0.000369398 9.44527e-05 0.000349935)
(0.000497356 -4.16667e-05 0.000436416)
(0.000512544 -5.98897e-05 0.000434056)
(0.000526091 -0.000141168 0.000419481)
(0.000409947 -6.35749e-05 0.000374428)
(0.000493387 -0.000120976 0.000327849)
(0.000386413 -9.49664e-06 0.000344273)
(0.000537578 -0.000131634 0.000355542)
(0.000366529 -2.85911e-05 0.000293887)
(0.000473727 -0.000100858 0.000283898)
(0.000556681 -0.000213226 0.000269911)
(0.000344914 5.82957e-05 0.000358379)
(0.000344629 8.64344e-05 0.000375768)
(0.000384324 2.43742e-05 0.000311692)
(0.000381276 6.41843e-05 0.000328746)
(0.00039857 0.000143409 0.000381513)
(0.000431217 0.00014855 0.000513038)
(0.000429887 0.000146902 0.000461129)
(0.000445185 0.000128215 0.000375103)
(0.00050037 0.000163232 0.000418473)
(0.000497651 0.000189942 0.000526488)
(0.000446719 0.000157489 0.000524673)
(0.000472771 0.000155465 0.000554401)
(0.000472508 0.000172719 0.000399564)
(0.00045298 0.000159443 0.000527143)
(0.00045315 0.000164341 0.000526504)
(0.000572148 0.000207747 0.00065858)
(0.000546593 0.000195793 0.000514977)
(0.000404426 0.000117533 0.000371067)
(0.000572807 0.000180561 0.000422715)
(0.000455577 0.000104943 0.000392646)
(0.000585127 0.000147815 0.000398729)
(0.000514747 0.000178641 0.000440208)
(0.000520259 0.000163704 0.000512711)
(0.000695846 0.000262295 0.000524887)
(0.00055199 0.000187627 0.000432364)
(0.000528069 0.000160498 0.000456085)
(0.000737278 0.000259753 0.000483138)
(0.000567485 0.000245234 0.000484737)
(0.000604357 0.000209123 0.00059334)
(0.000559903 0.000181771 0.000626945)
(0.000662614 0.000226181 0.000620654)
(0.000661176 0.00023199 0.000599511)
(0.000349457 0.000139287 0.000457084)
(0.000341312 0.000130217 0.000452192)
(0.00023451 6.97481e-05 0.000426283)
(0.000338558 0.000127971 0.000489836)
(0.000425507 0.000120215 0.000633819)
(0.000389274 0.0001105 0.00058312)
(0.000377171 0.000145077 0.000491755)
(0.000396793 0.000153125 0.000511378)
(0.000380067 0.00014649 0.000559933)
(0.000361177 6.1521e-05 0.000646417)
(0.000311934 4.20575e-05 0.000578801)
(0.00036655 0.000107532 0.000607423)
(0.000349105 9.46679e-05 0.000601278)
(0.000312306 4.14482e-05 0.00050653)
(0.00042308 0.000169136 0.000537711)
(0.000447922 0.000138044 0.000626545)
(0.000399564 0.000121569 0.000609427)
(0.000385048 -5.75302e-06 0.000636203)
(0.000474687 0.000142906 0.000711558)
(0.000356631 5.80789e-05 0.000606152)
(0.000462064 0.000184672 0.00052547)
(0.0005013 0.000193859 0.000564497)
(0.00044686 0.000139953 0.000626417)
(0.000436847 0.000173831 0.000559964)
(0.00050483 0.000202744 0.00056436)
(0.000502249 0.00012596 0.000695662)
(0.000512296 0.000143514 0.000781622)
(0.00040812 4.62528e-05 0.000674707)
(0.000374572 4.51454e-05 0.000613725)
(0.000406375 7.63343e-05 0.000648415)
(0.000461647 0.000129126 0.000688529)
(0.000394082 7.30689e-05 0.000606982)
(0.000512641 0.000217722 0.000602369)
(0.000511802 0.000104633 0.000749556)
(0.000591777 0.000190451 0.000851619)
(0.000281026 1.12075e-05 0.000490795)
(0.00029235 5.46763e-05 0.000500069)
(0.000356398 0.000131196 0.000557663)
(0.000375326 8.3277e-05 0.000635668)
(0.000353393 2.58653e-05 0.000586059)
(0.000436578 9.29769e-05 0.000693466)
(0.000334848 -1.24959e-05 0.000566168)
(0.000337139 3.9624e-05 0.000558061)
(0.000429977 0.000142974 0.000675964)
(0.000358631 4.55733e-05 0.000610206)
(0.000313373 3.67666e-05 0.000525869)
(0.000381659 -4.81622e-06 0.000629685)
(0.000331188 4.24982e-05 0.000556198)
(0.000352788 4.57829e-05 0.000581605)
(0.000428773 4.24895e-05 0.000700517)
(0.000334966 8.73311e-05 0.000576016)
(0.000334033 5.94469e-05 0.000563018)
(0.000425818 -5.78558e-05 0.000652683)
(0.000478148 0.00012833 0.000752885)
(0.000410945 -2.19371e-05 0.000692103)
(0.000523311 6.53776e-05 0.00085566)
(0.00039951 1.201e-05 0.00066757)
(0.000419818 3.41742e-05 0.00068475)
(0.000528917 0.000159603 0.000768099)
(0.000424004 5.34279e-05 0.000677767)
(0.000484447 3.50979e-05 0.000771365)
(0.000521916 4.50304e-05 0.000855243)
(0.000531793 1.92087e-05 0.000853646)
(0.000419728 3.57805e-05 0.000672574)
(0.000474439 4.15971e-05 0.000752865)
(0.000424258 1.56145e-05 0.000673768)
(0.000483814 4.94222e-05 0.000765812)
(0.000546401 0.000174715 0.000686305)
(0.000534956 0.000191651 0.000614626)
(-2.10071e-05 -4.91174e-05 0.000160221)
(0.000564947 0.000152809 0.000775432)
(0.000491113 0.000138078 0.000665216)
(0.000614699 0.000226827 0.000665666)
(0.000573288 0.000220531 0.000600879)
(0.000608984 0.000213826 0.00067527)
(-2.52652e-05 -4.87928e-05 0.000159663)
(0.000543268 0.000172241 0.000711946)
(0.000562559 0.000207045 0.000657583)
(0.000609632 0.000227839 0.000686269)
(0.000555196 0.000167356 0.000765172)
(0.000624158 0.000177155 0.000912148)
(-2.29055e-05 -4.85735e-05 0.000156939)
(0.000467802 7.07883e-05 0.000728408)
(0.000433014 6.23083e-05 0.00070993)
(0.000466412 9.53625e-05 0.000705872)
(0.000526181 5.92202e-05 0.000795087)
(0.00046367 0.000106057 0.000703058)
(-2.53754e-05 -3.80854e-05 0.000159953)
(0.000575141 0.000234879 0.000663531)
(0.000594261 0.000120888 0.000837169)
(0.000681858 0.000216349 0.000930105)
(0.000655093 0.000218262 0.000774263)
(0.000714638 0.000251974 0.000649313)
(0.000772099 0.000285177 0.00065592)
(0.000644787 0.000189514 0.000833499)
(0.000603276 0.000174284 0.000746802)
(0.000632832 0.00025709 0.000626693)
(0.000666639 0.000236915 0.000679402)
(0.00064209 0.000203599 0.000759835)
(0.000711056 0.000244352 0.000809961)
(0.00073687 0.000282697 0.0007776)
(0.000657855 0.000204558 0.000837398)
(0.000684445 0.000170776 0.000940945)
(0.000561015 0.000136362 0.000784128)
(0.000626869 0.000139627 0.000975298)
(0.000509425 0.000103639 0.00075316)
(0.000587506 8.10804e-05 0.000888825)
(0.000730719 0.0002412 0.000926526)
(0.000606394 0.000195394 0.000767756)
(0.000646007 0.000168967 0.00092175)
(0.000538886 9.02101e-05 0.000869196)
(0.000557759 0.000149298 0.000790364)
(0.000730351 0.000132777 0.00102487)
(0.000640312 0.000146162 0.000993977)
(0.000590887 6.5977e-05 0.000948642)
(0.000591971 2.08101e-05 0.000943028)
(0.000474846 2.90848e-05 0.000788003)
(0.000467149 6.4709e-05 0.000733937)
(0.000601962 0.000120118 0.000871062)
(0.000615295 0.000127395 0.000961253)
(0.00057735 2.80183e-05 0.000904382)
(0.00059391 3.95171e-05 0.00093524)
(0.000602914 -3.79159e-05 0.000937237)
(0.000583751 4.03381e-05 0.00089389)
(0.000669713 0.000132196 0.000972291)
(-3.13492e-05 -4.31846e-05 0.00016834)
(0.000502092 -1.43676e-06 0.00082207)
(0.000456782 5.66092e-05 0.000719425)
(0.000650605 0.000152168 0.000958376)
(0.000679246 0.000191686 0.00101734)
(0.000566259 -1.16435e-06 0.000945925)
(0.000706341 6.48147e-05 0.001115)
(0.00052737 4.31771e-05 0.000829544)
(0.000650558 3.14075e-05 0.000998027)
(0.000520345 5.49522e-05 0.000823517)
(0.000500902 -1.62956e-05 0.000763654)
(0.000642847 -8.88891e-05 0.000953358)
(0.00069147 3.44422e-05 0.00109583)
(0.000691949 3.54163e-06 0.00108501)
(0.000365687 -5.10238e-05 0.000531674)
(0.000287834 1.95443e-05 0.000446124)
(0.000322424 9.37758e-06 0.000462544)
(0.000311549 9.44748e-06 0.000476315)
(0.00022399 4.01369e-05 0.000400098)
(0.000297599 2.77178e-05 0.000460677)
(0.000380278 2.83652e-06 0.000493849)
(0.000298068 4.62032e-05 0.000465667)
(0.000347822 4.44645e-05 0.000617779)
(0.000349385 6.12702e-05 0.000592212)
(-2.31179e-05 -4.18234e-05 0.000153517)
(-2.67858e-05 -4.38563e-05 0.000160416)
(-2.47859e-05 -4.05222e-05 0.000148595)
(-2.62685e-05 -3.6844e-05 0.000149457)
(0.000390162 3.2967e-05 0.00061038)
(0.000353116 7.47987e-05 0.000559473)
(0.000420177 1.4627e-05 0.000563685)
(0.000376799 3.1867e-05 0.000506455)
(0.000395487 -1.26254e-05 0.000510961)
(0.000392132 4.34686e-06 0.000482333)
(-2.97105e-05 -3.62349e-05 0.000154834)
(0.000413571 1.78992e-06 0.000532501)
(-3.50336e-05 -2.89072e-05 0.000164911)
(-3.01258e-05 -3.46158e-05 0.000155925)
(0.000439949 1.25542e-05 0.000222405)
(0.000437032 1.64017e-05 0.000268927)
(0.000417157 -1.32347e-05 0.000256186)
(-3.3466e-05 -3.44597e-05 0.000153951)
(-2.65193e-05 -3.83405e-05 0.000164586)
(-2.59151e-05 -4.18796e-05 0.000161128)
(-3.23185e-05 -3.37819e-05 0.000175021)
(-3.386e-05 -4.23219e-05 0.000182629)
(-2.97026e-05 -3.03066e-05 0.000166635)
(-2.8566e-05 -2.62578e-05 0.000159437)
(-3.46638e-05 -3.44989e-05 0.000159024)
(0.000388614 6.32272e-05 7.54329e-05)
(0.00044879 6.37439e-05 0.00013893)
(0.00036945 3.31852e-05 8.33124e-05)
(0.000354996 6.60088e-05 6.28227e-05)
(0.000370866 4.71162e-05 8.61293e-05)
(0.000431301 1.17736e-05 0.000128396)
(0.000417314 1.30453e-05 0.000188497)
(0.00044467 -2.89768e-05 0.000197621)
(0.000437953 1.53571e-06 0.000164543)
(0.000417828 6.07023e-07 0.000205076)
(0.000406958 2.95084e-05 9.31209e-05)
(0.000424729 -7.10858e-06 9.9714e-05)
(0.000431835 -8.6755e-06 0.000382332)
(0.000409757 5.92357e-06 0.000416524)
(0.000398202 -2.1277e-06 0.000434288)
(0.000359873 5.88119e-06 0.000417269)
(0.000390617 3.02968e-06 0.000456952)
(0.000328291 2.44094e-05 0.000424815)
(0.000459183 -3.88178e-06 0.000413315)
(0.000465547 -2.47098e-05 0.00035435)
(0.000468327 -1.41106e-05 0.000339693)
(0.000409125 -4.23864e-06 0.000351715)
(0.000390889 -2.22854e-05 0.000442383)
(0.000405738 -1.41469e-05 0.000397284)
(0.00043148 2.22549e-05 0.000511536)
(0.000496579 -3.38762e-05 0.000250151)
(0.000460181 -5.02628e-05 0.000333978)
(0.00047007 -5.13624e-05 0.000280913)
(0.000483912 -3.32923e-05 0.000353504)
(0.000517275 -8.44044e-05 0.000231828)
(0.000457804 -4.77313e-05 0.000386242)
(0.00042695 -4.24602e-05 0.000448564)
(0.000466156 -6.99045e-05 0.000429841)
(0.000470053 -1.4829e-05 0.000518135)
(0.000550273 -9.92436e-05 0.000411138)
(0.000510125 -9.99498e-05 0.000339695)
(0.000521209 -9.00708e-05 0.000275896)
(0.000507043 -6.70855e-05 0.00034562)
(0.000452623 -4.76913e-05 0.000180402)
(0.000449007 -3.86968e-05 0.000144805)
(0.000481115 -4.17292e-05 0.00018497)
(0.000327265 7.42114e-05 3.32577e-05)
(0.000337791 5.71594e-05 5.99237e-05)
(0.000290961 8.25662e-05 1.20818e-05)
(0.000315784 6.94219e-05 3.03216e-05)
(0.00035933 3.17742e-05 5.23951e-05)
(0.000404513 -2.79913e-07 7.49958e-05)
(0.000332596 4.5924e-05 5.13891e-05)
(0.000222739 8.10577e-05 1.75951e-07)
(0.000305428 8.8604e-05 1.66352e-05)
(0.000139998 6.82228e-05 3.98531e-05)
(0.000151046 6.57745e-05 1.63086e-05)
(0.000253025 9.58751e-05 9.42501e-06)
(0.000267291 7.14214e-05 4.52703e-05)
(0.000245948 3.97204e-05 -1.47022e-05)
(0.000288798 4.87555e-05 3.02579e-05)
(0.000347798 3.79911e-05 2.1002e-05)
(0.000244027 7.60797e-05 7.73624e-06)
(0.000233854 5.45732e-05 1.23893e-05)
(0.000312072 5.45047e-05 1.8857e-05)
(0.000581723 -0.000133617 0.000198633)
(0.000567461 -0.000137646 0.0003521)
(0.000553886 -0.000134837 0.000279343)
(0.00058006 -0.000124117 0.00035667)
(0.000460379 -2.80007e-05 0.000114176)
(0.000503657 -0.000100595 0.000177399)
(0.000463101 -5.17614e-05 0.000155283)
(0.000468219 -7.26413e-05 0.000158728)
(0.000418372 -1.58661e-05 7.16606e-05)
(0.000453971 -5.68059e-05 0.000106737)
(0.000540292 -0.000108419 0.000142281)
(0.000585188 -0.000126883 0.000178339)
(0.000612562 -0.000194268 0.000247645)
(0.000575059 -0.00013419 0.000170701)
(0.000549676 -0.000142595 0.000200481)
(0.000384088 1.69076e-05 4.32605e-05)
(0.000395731 -7.33719e-06 4.31597e-05)
(0.000425915 -5.64994e-05 9.94192e-05)
(0.000397862 -7.54186e-06 7.19649e-05)
(0.000413511 -3.4557e-05 6.20643e-05)
(0.000326938 3.37892e-05 4.70564e-05)
(0.000374044 -4.30352e-06 4.42094e-05)
(0.00055043 -0.00010045 0.000104831)
(0.000580894 -0.000155298 0.000122482)
(0.000601398 -0.000156364 0.000113186)
(0.000465419 -6.88163e-05 0.000112837)
(0.000428474 -3.18114e-05 0.000125173)
(0.00047702 -6.84049e-05 9.20299e-05)
(0.000306713 5.40721e-05 0.000524078)
(0.000325464 3.49312e-05 0.000540782)
(0.000367978 -1.58549e-05 0.000577016)
(0.000366687 7.28056e-06 0.000569364)
(0.000313325 7.27466e-05 0.000528651)
(0.000354685 6.81288e-06 0.000536737)
(0.000454247 -2.71172e-05 0.000677376)
(0.000325118 2.79175e-05 0.000531633)
(0.000356821 1.45364e-05 0.00055092)
(0.000412834 2.49358e-05 0.000635351)
(0.000404481 -1.31042e-05 0.00056061)
(0.000372153 1.03975e-05 0.000524564)
(0.000415645 1.57918e-05 0.000594739)
(0.00048358 -1.86058e-05 0.000686748)
(0.000490331 1.93216e-05 0.000807319)
(0.000368009 4.85397e-05 0.00058957)
(0.000421387 4.8649e-05 0.00068177)
(0.000404641 5.18147e-05 0.000677355)
(0.000433005 2.53953e-06 0.000664643)
(0.000574067 -6.91287e-05 0.000811204)
(0.000531003 -0.00011638 0.000708522)
(0.000439447 6.2444e-05 0.000715575)
(0.00045971 -1.54306e-05 0.000676944)
(0.000412739 4.4547e-06 0.000580766)
(0.00046576 5.69985e-06 0.000662371)
(0.000454641 -4.07207e-05 0.000566199)
(0.000412149 -3.18905e-05 0.000491052)
(0.000462062 -1.45157e-05 0.00058819)
(-3.62096e-05 -2.99914e-05 0.000160902)
(0.000529546 -0.000111562 0.000632186)
(0.000500266 -7.95513e-05 0.000534613)
(0.000543707 -3.09392e-05 0.000661293)
(0.000430324 -2.46212e-05 0.000614901)
(0.000499923 -5.79649e-05 0.000633335)
(0.000567546 -4.56073e-05 0.00074126)
(0.000518085 -0.000108078 0.000522018)
(0.000510857 -0.000100451 0.000436523)
(0.000495986 -4.42437e-05 0.00054156)
(0.000634933 -4.20762e-05 0.000968173)
(0.000443465 4.80641e-06 0.000678523)
(-3.63576e-05 -2.58216e-05 0.000148721)
(0.00047385 -2.38541e-05 0.000676403)
(0.000547631 -1.50782e-05 0.000799327)
(0.000619863 -9.00428e-05 0.000870801)
(0.000634323 -0.000134688 0.000803749)
(0.000466015 -6.7671e-05 0.000579996)
(-4.14739e-05 -2.12639e-05 0.000160477)
(0.000578787 -0.000211638 0.000534308)
(0.000602006 -8.27939e-05 0.000721707)
(0.000610193 -0.000102991 0.000828181)
(0.000540488 -0.00010946 0.000680038)
(0.000600279 -6.95869e-05 0.000794113)
(0.000665368 -0.000147061 0.000773413)
(0.000597096 -0.000134533 0.000618184)
(0.000728585 -0.000247189 0.000785182)
(0.000652001 -0.000257195 0.000606199)
(0.000679743 -0.000177248 0.000760978)
(0.000480162 1.47372e-05 0.000751295)
(0.000485071 -4.08683e-05 0.00070812)
(0.000596297 -5.68595e-05 0.000860358)
(0.000639561 -6.02638e-05 0.000954443)
(0.00062837 -0.000158482 0.000869782)
(0.000576723 1.85752e-05 0.000866297)
(0.000655776 -0.000115533 0.000976978)
(0.000619645 5.48587e-05 0.000966394)
(0.000581163 -6.54553e-05 0.000858048)
(0.00057145 -0.000101345 0.000793882)
(0.00068175 -0.000140126 0.000937133)
(0.000564415 -0.000118969 0.000773647)
(0.000618552 -0.000174045 0.000744997)
(0.00069997 -0.000157826 0.000884836)
(0.000799084 -0.000246251 0.000947314)
(0.000615741 -0.000239828 0.000695662)
(0.000732576 -0.000344828 0.000629732)
(0.000742937 -0.000193825 0.000837075)
(0.000613896 -0.000176111 0.000420912)
(0.000511855 -0.000172391 0.000446479)
(0.000599154 -0.000188895 0.000454304)
(0.000582608 -9.36971e-05 0.00059561)
(0.000639384 -0.000171955 0.000597868)
(0.000639388 -0.000211403 0.000415933)
(0.000589552 -0.000202071 0.000366905)
(0.000655812 -0.000211833 0.000259382)
(0.000594849 -0.000159075 0.000353072)
(0.000687113 -0.000248865 0.000425577)
(0.000700075 -0.000292963 0.000296654)
(0.00068306 -0.000241546 0.000397222)
(0.000710542 -0.000260686 0.000600109)
(-4.41903e-05 -1.70991e-05 0.000158719)
(0.000682112 -0.000306876 0.000444756)
(0.00068806 -0.000229705 0.000589276)
(0.000811231 -0.000375055 0.000704492)
(0.000792521 -0.000402555 0.000480104)
(0.000742947 -0.000273078 0.000648921)
(-4.74782e-05 -1.24147e-05 0.000160026)
(0.000772345 -0.000360508 0.000482638)
(0.00081127 -0.000374334 0.000351561)
(-3.59812e-05 -3.43432e-05 0.000183118)
(0.000707648 -0.000271212 0.000456248)
(0.000637942 -0.000211638 0.000267836)
(-4.00304e-05 -2.70614e-05 0.000186366)
(0.000648258 -0.000189663 0.000227087)
(0.000632748 -0.000203883 0.000234975)
(-3.42707e-05 -3.41725e-05 0.000168431)
(0.00070582 -0.000201076 0.000180256)
(-3.742e-05 -1.67279e-05 0.000169781)
(-4.07079e-05 -2.86416e-05 0.000183219)
(0.000726347 -0.000320862 0.000250948)
(0.00067806 -0.000241731 0.000224228)
(-4.18623e-05 -2.72221e-05 0.000182878)
(0.000673527 -0.000245375 0.000282444)
(0.000411064 -0.000248545 0.000220742)
(-4.5395e-05 -1.98047e-05 0.000178171)
(0.000473422 -0.000296765 0.000176636)
(0.00037866 -0.000240231 0.000174069)
(-4.44179e-05 -2.04525e-05 0.000182294)
(0.000279197 -0.000183361 0.000182361)
(0.000347431 -0.000234348 0.000182196)
(-4.83073e-05 -1.30751e-05 0.000190995)
(0.000251796 -0.000174872 0.000149539)
(0.000305375 -0.00017892 0.000229547)
(-3.71503e-05 -1.96319e-05 0.000164328)
(-3.3663e-05 -1.74156e-05 0.00015157)
(0.000350672 -0.000219133 0.000176331)
(-3.92877e-05 -2.38024e-05 0.000154032)
(-4.11427e-05 -1.82304e-05 0.000168309)
(0.000175314 -0.000110458 0.000151391)
(-3.95964e-05 -1.58562e-05 0.000152898)
(-4.35143e-05 -1.32406e-05 0.000166692)
(0.000235588 -0.000158806 0.000170567)
(-4.21115e-05 -1.26322e-05 0.000151065)
(0.000160593 -0.00010424 0.000132197)
(8.89916e-05 -4.65618e-05 0.000100934)
(0.000149061 -8.55274e-05 0.000152003)
(0.000104346 -4.59997e-05 0.000121462)
(7.26877e-05 -3.26617e-05 8.96035e-05)
(0.00011792 -5.50377e-05 0.000130235)
(8.35334e-05 -5.10921e-05 8.54215e-05)
(0.000176893 -9.5528e-05 0.000173414)
(0.000215902 -0.000125322 0.000169425)
(0.000229236 -0.00019469 8.65096e-05)
(0.000366112 -0.000270809 0.000117101)
(0.000258921 -0.000178637 0.000141902)
(0.000102521 -7.9321e-05 6.94974e-05)
(0.000219456 -0.000175661 0.00010511)
(0.000158249 -0.000109934 0.000118246)
(0.000115657 -7.88079e-05 0.0001061)