/*--------------------------------*- C++ -*----------------------------------*\
  =========                 |
  \\      /  F ield         | OpenFOAM: The Open Source CFD Toolbox
   \\    /   O peration     | Website:  https://openfoam.org
    \\  /    A nd           | Version:  7
     \\/     M anipulation  |
\*---------------------------------------------------------------------------*/
FoamFile
{
    version     2.0;
    format      ascii;
    class       volScalarField;
    location    "9";
    object      p;
}
// * * * * * * * * * * * * * * * * * * * * * * * * * * * * * * * * * * * * * //

dimensions      [0 2 -2 0 0 0 0];

internalField   nonuniform List<scalar> 
382612
(
0.00207984
0.00183462
0.00199558
0.00199852
0.00173804
0.00220652
0.00212138
0.00201541
0.00184545
0.00168226
0.00187967
0.00186737
0.00180994
0.0018369
0.00195166
0.00207165
0.0018469
0.00198697
0.00202032
0.00204009
0.00205883
0.00208304
0.00210719
0.0021151
0.00209652
0.00207337
0.00205051
0.0024538
0.0024976
0.00253463
0.00256539
0.00235624
0.00234997
0.00234136
0.00232579
0.00224104
0.00195481
0.00204256
0.00210267
0.00213294
0.00215758
0.00217936
0.00209376
0.00207822
0.00205758
0.0020313
0.00194824
0.00196226
0.00198217
0.00199853
0.0021581
0.00214276
0.00212424
0.00210417
0.0020788
0.00192001
0.00197261
0.00205593
0.00211723
0.00200617
0.00207841
0.00195125
0.00196769
0.00261147
0.00201441
0.00186204
0.00212264
0.00232706
0.00242807
0.00255699
0.00257406
0.00257628
0.00257734
0.00271127
0.00270189
0.00268946
0.0026653
0.00256168
0.00236343
0.00246387
0.0025031
0.00252961
0.00254829
0.00287815
0.00288536
0.00289376
0.00287882
0.00272984
0.00211695
0.00224002
0.0022702
0.00228481
0.00229448
0.00246947
0.00248366
0.00250111
0.00250311
0.00243821
0.00201188
0.00208169
0.00210196
0.00211471
0.00212837
0.00214394
0.00201945
0.00201247
0.00200435
0.00200127
0.00181132
0.00183989
0.00186064
0.00187558
0.00212587
0.00210806
0.00208798
0.00206785
0.00204139
0.00170157
0.00182063
0.00185235
0.00186673
0.00187523
0.00203715
0.00201974
0.00200057
0.00197838
0.00191233
0.00165904
0.00184333
0.00196958
0.00199168
0.00200013
0.00200285
0.0022103
0.00221909
0.00223134
0.00224432
0.00235843
0.00233765
0.00220646
0.0021751
0.00215607
0.00214248
0.00189652
0.00188683
0.00187546
0.00186985
0.00198619
0.00199871
0.00200948
0.00201632
0.00200896
0.00200595
0.00199958
0.00199494
0.00203702
0.00195683
0.00188765
0.00188744
0.00189385
0.00189814
0.001831
0.00198435
0.00202128
0.00170875
0.0018744
0.00181644
0.00209883
0.00230671
0.00178175
0.00180278
0.00213849
0.00174331
0.00181853
0.00179687
0.00172806
0.00172461
0.00173329
0.00173883
0.00223923
0.00224976
0.00226724
0.00229037
0.00229157
0.00196841
0.00192871
0.00191842
0.00191765
0.00191885
0.00223396
0.00224858
0.00227222
0.00230177
0.0023306
0.0020046
0.00211245
0.0021199
0.00211861
0.0021138
0.00211063
0.0019325
0.00193255
0.00193476
0.00194651
0.00165199
0.00165467
0.0016615
0.00166426
0.00198167
0.00198241
0.00198271
0.00198553
0.0020222
0.00167787
0.00166814
0.00202645
0.001925
0.00161366
0.0018444
0.00198213
0.00169613
0.00197322
0.00193964
0.00166182
0.00159214
0.00190194
0.00190862
0.00175374
0.00157737
0.00181061
0.00195081
0.00200805
0.0019794
0.00197107
0.0018363
0.00166773
0.00200596
0.00193115
0.00199329
0.00202476
0.00194296
0.00199219
0.00211485
0.00208933
0.00189251
0.00193827
0.00197472
0.00198525
0.00199827
0.00201201
0.00215997
0.00215777
0.00214954
0.00210962
0.00237258
0.00234824
0.00232976
0.00231277
0.00272813
0.0027181
0.00270873
0.00268557
0.00255306
0.00247539
0.0024127
0.00241657
0.00242791
0.00243115
0.00243695
0.00210166
0.00210381
0.00209922
0.00208571
0.0020936
0.00255264
0.00251528
0.00251784
0.00252707
0.00253524
0.00236164
0.00234814
0.00232644
0.00230951
0.00233378
0.00254529
0.00249885
0.00249809
0.00251177
0.00252306
0.00272136
0.00272186
0.00272181
0.00271289
0.00264298
0.00255911
0.00268206
0.00271123
0.00272372
0.00273098
0.0031469
0.00315315
0.00316126
0.00314385
0.002975
0.0022075
0.00223191
0.00224705
0.0022691
0.00228708
0.00236161
0.00235401
0.00234375
0.00232316
0.00222666
0.00204774
0.00212431
0.00215646
0.00217994
0.00219558
0.00253034
0.00254471
0.0025682
0.00257947
0.0024986
0.00185431
0.00185071
0.00185613
0.00187255
0.00188816
0.00195797
0.0019562
0.00196792
0.00198213
0.00199176
0.00193771
0.00192318
0.00190502
0.00189499
0.0018856
0.00243437
0.00243543
0.00241415
0.00238822
0.00236996
0.00187525
0.00186637
0.00185593
0.00185812
0.00189963
0.00237708
0.00232668
0.00229549
0.00227081
0.00225525
0.00174937
0.00174498
0.00174043
0.00175463
0.00185284
0.00205437
0.00199133
0.00198239
0.00198655
0.00199142
0.0022234
0.00223583
0.00225492
0.00228109
0.0023297
0.00195693
0.00186617
0.0018543
0.00186097
0.00186737
0.00218914
0.00219974
0.00221507
0.00223221
0.00224073
0.00201138
0.0020435
0.00204565
0.00204656
0.00204357
0.00204072
0.0019671
0.00196627
0.00196586
0.00197114
0.00181374
0.00181115
0.00181277
0.00181368
0.00198332
0.00198669
0.00198971
0.00199191
0.002
0.00183306
0.00208723
0.00203339
0.00202081
0.0020169
0.00201413
0.00196628
0.00213454
0.0022074
0.00215944
0.00214446
0.00213648
0.00213103
0.00199339
0.00199293
0.00199199
0.00199132
0.00203915
0.00203695
0.0020333
0.00203054
0.00205543
0.00205664
0.00205866
0.00206005
0.00204461
0.00204624
0.00205036
0.00205337
0.00222512
0.00222937
0.00223375
0.00223706
0.00225662
0.00206043
0.00206248
0.00208906
0.00215772
0.00201518
0.00205963
0.00201979
0.00190903
0.00179067
0.00197911
0.00198214
0.0018246
0.00215163
0.00210711
0.00208008
0.00212319
0.00200056
0.00204153
0.00211488
0.00219571
0.00219318
0.00229201
0.00227985
0.00224601
0.00224035
0.00224173
0.00224382
0.00233057
0.0023276
0.00232342
0.00231855
0.00231625
0.00236642
0.00237449
0.00237699
0.00237967
0.00238289
0.00231231
0.0023125
0.00231205
0.0023084
0.00230321
0.00213377
0.0020759
0.00208461
0.00208703
0.00208681
0.00208687
0.00214894
0.00214188
0.00213296
0.00212749
0.00208037
0.00208464
0.00208986
0.00209379
0.00205971
0.0020606
0.00206193
0.00206132
0.00205673
0.00208014
0.00227245
0.00225976
0.00226062
0.00225985
0.00225786
0.00227326
0.00235453
0.00230291
0.00229048
0.00229585
0.00230415
0.00231025
0.00251897
0.00251802
0.00251508
0.00250295
0.00246256
0.00248981
0.00251507
0.00252518
0.0025317
0.00253637
0.00244964
0.00244363
0.00243584
0.00242746
0.00242169
0.00234816
0.00237878
0.00239263
0.00239883
0.00240281
0.00220813
0.00219704
0.00218385
0.00217699
0.00212923
0.00213376
0.00213487
0.00213617
0.00216876
0.00216683
0.00216474
0.00216042
0.00221743
0.00221947
0.00222548
0.00223077
0.00245647
0.00244549
0.00243132
0.00241349
0.00238079
0.00221941
0.00214192
0.00212812
0.00224292
0.0021665
0.00211529
0.0020848
0.00215012
0.00201631
0.00203699
0.00208773
0.00213911
0.00218444
0.0020948
0.00211019
0.00222071
0.00218022
0.00211164
0.00229347
0.00236876
0.00245994
0.00249747
0.0024456
0.00245304
0.00246173
0.00247099
0.00247762
0.00258705
0.00258024
0.00257012
0.00255474
0.00252405
0.00255131
0.00258221
0.00259453
0.00260168
0.00260621
0.00251566
0.00251168
0.00250535
0.00249457
0.00248106
0.0024653
0.00247586
0.00248226
0.00248556
0.00248748
0.00242384
0.00241374
0.00240039
0.00238501
0.00235279
0.00222042
0.00224187
0.00224142
0.00223878
0.00223671
0.00231062
0.00230188
0.00229146
0.00227684
0.0022304
0.00215363
0.00210312
0.00211284
0.00211709
0.00211728
0.00211676
0.00213948
0.00213585
0.00213179
0.00213417
0.00218209
0.002187
0.00219358
0.00219868
0.00213384
0.00213278
0.00213205
0.00213086
0.0021219
0.00217677
0.00215862
0.00210029
0.00210052
0.00214541
0.00210719
0.00207711
0.00208493
0.0021202
0.00221606
0.00212769
0.00205378
0.0020641
0.0021343
0.00206958
0.00231201
0.0026304
0.00220577
0.00210523
0.00231938
0.00246941
0.00255782
0.00257479
0.00255447
0.00253539
0.0024502
0.00248522
0.0025004
0.00250757
0.00251163
0.00258711
0.00258194
0.00257552
0.00256619
0.00253705
0.00254294
0.00257394
0.00258336
0.00258948
0.00259423
0.00254743
0.00253945
0.00252882
0.00251781
0.00250476
0.00254375
0.00257451
0.0025858
0.00259266
0.00259744
0.00255128
0.00254863
0.00254261
0.00252839
0.00249042
0.00237278
0.00236804
0.00237271
0.00238001
0.00238599
0.00244392
0.002442
0.00243952
0.00243338
0.0024099
0.00229617
0.00229412
0.00229897
0.00230439
0.002308
0.00218761
0.00218365
0.00217879
0.00217474
0.00217072
0.00211052
0.00208733
0.00209506
0.00209804
0.00209786
0.00209611
0.00211793
0.00211447
0.0021098
0.00210678
0.00209502
0.00209645
0.00209952
0.00210293
0.00206943
0.00206969
0.002068
0.00206336
0.00206137
0.00210192
0.00218885
0.0021818
0.00218561
0.00219076
0.00219507
0.00214196
0.00213793
0.00213273
0.002129
0.00213284
0.00205822
0.00204499
0.002056
0.00205958
0.00206113
0.00206303
0.00208136
0.00207612
0.00206976
0.00206457
0.00208568
0.00208622
0.00208734
0.00208839
0.00208339
0.00208132
0.00208119
0.00208075
0.00207352
0.00208441
0.00207884
0.0020523
0.00207301
0.00206925
0.00200601
0.00201655
0.00210136
0.00212777
0.00215083
0.00209087
0.00206393
0.0020349
0.00208086
0.0020697
0.00197494
0.0018738
0.00210347
0.00207188
0.00213247
0.00217338
0.00230625
0.00217051
0.0021813
0.0023378
0.0021029
0.00206561
0.00213895
0.00228121
0.00220295
0.00211559
0.00210218
0.0022348
0.00227821
0.00213713
0.00209108
0.00210121
0.00233896
0.00233129
0.00238346
0.00238878
0.00239554
0.00238541
0.00238357
0.00238446
0.00238584
0.00238116
0.00237946
0.00237834
0.0023795
0.00237741
0.00246483
0.00248444
0.00248969
0.0024938
0.00249729
0.00241685
0.0024146
0.00240985
0.00239846
0.00237277
0.00230789
0.00230462
0.00230499
0.00230807
0.0023116
0.00241378
0.00240878
0.00240302
0.00239541
0.00237154
0.00238547
0.00241018
0.00241916
0.00242639
0.00243246
0.00252322
0.00251861
0.0025115
0.00249552
0.00245452
0.00236896
0.00238766
0.0024006
0.00240855
0.00241328
0.0025005
0.00249518
0.00248915
0.00248318
0.00246567
0.00246185
0.00247025
0.00247466
0.00247867
0.00248179
0.00239737
0.00239517
0.0023935
0.00239231
0.00238041
0.0023331
0.00232306
0.00232022
0.00232143
0.00232305
0.00223528
0.0022304
0.00222446
0.00222235
0.00223605
0.00225658
0.00227199
0.00227473
0.00227441
0.00227446
0.00216481
0.00216693
0.00216869
0.00216898
0.00216219
0.00216087
0.00217552
0.00217523
0.0021717
0.00216837
0.00204505
0.00204102
0.00203658
0.00203583
0.00206662
0.00207171
0.00207457
0.00207714
0.00206713
0.00206323
0.00205836
0.00205115
0.00204321
0.0020434
0.00204127
0.00204601
0.00205114
0.00205489
0.00207302
0.00207363
0.00207382
0.00207404
0.00207388
0.0020559
0.00205245
0.00205166
0.00205161
0.00205136
0.00201547
0.00201174
0.00200663
0.00200281
0.00202168
0.00202636
0.00203021
0.00203409
0.00210503
0.0021013
0.00209947
0.00209723
0.00206872
0.00206614
0.002068
0.00207062
0.00209347
0.00209769
0.00210365
0.00211018
0.0021157
0.00208039
0.00209115
0.00207237
0.00204735
0.00188883
0.00197088
0.00209345
0.00204146
0.00199702
0.00204141
0.00208141
0.00208224
0.00180822
0.00196307
0.00195171
0.00177027
0.00186171
0.00194415
0.00200109
0.00195851
0.00207651
0.00205262
0.00210466
0.0021917
0.00231367
0.00214711
0.00210124
0.00216744
0.00216582
0.00211872
0.00201045
0.00199125
0.00194256
0.00220719
0.00244322
0.0026094
0.00268276
0.00264838
0.00251135
0.00230918
0.00208149
0.00187304
0.00173945
0.00178843
0.00180117
0.00180026
0.0017973
0.00192126
0.00191408
0.00190628
0.00190168
0.00189651
0.0021091
0.00217505
0.00219131
0.00219251
0.00219117
0.00227443
0.00226572
0.00225571
0.00224865
0.00223231
0.00216991
0.00222056
0.00223319
0.00223836
0.00224179
0.00220649
0.00220531
0.00220087
0.00218794
0.00214275
0.00232767
0.00233699
0.00234091
0.00234869
0.00235597
0.00229057
0.00229013
0.00228655
0.0022726
0.00222578
0.0021509
0.00215884
0.00216415
0.00216773
0.00216924
0.00230916
0.00230532
0.00230248
0.00230426
0.00230997
0.00227974
0.00227308
0.00227806
0.00228428
0.00228882
0.00228229
0.00228069
0.00227687
0.00226954
0.00226348
0.00221695
0.00223418
0.00224064
0.00224215
0.00224206
0.00215132
0.00214898
0.00214613
0.00214563
0.00215131
0.00221868
0.00220739
0.00220107
0.00219767
0.00219618
0.00211172
0.00210718
0.00210249
0.00210435
0.00213181
0.00210109
0.0020884
0.00209038
0.00209454
0.00209738
0.00212088
0.00212563
0.00213341
0.0021428
0.00214537
0.0020232
0.0020102
0.00201219
0.00201497
0.00201656
0.00198457
0.0019823
0.00197883
0.00197724
0.00199162
0.00200458
0.00199977
0.00200014
0.00200052
0.00199969
0.00203704
0.00203324
0.00202792
0.0020236
0.0020241
0.00197352
0.00200199
0.00201116
0.00202135
0.00203129
0.00203978
0.00201402
0.00200669
0.00199581
0.00198361
0.00200448
0.00200541
0.00200773
0.00200948
0.0020459
0.00204384
0.00204174
0.00203756
0.00202888
0.00201426
0.00205908
0.00208333
0.002074
0.00201692
0.00192135
0.00202736
0.00197818
0.00184364
0.00199524
0.0020279
0.00187825
0.00167443
0.0017677
0.00195098
0.00185781
0.00164749
0.0018154
0.00188178
0.0019285
0.00191492
0.00194221
0.00196689
0.00200256
0.00195383
0.00162799
0.00184028
0.00184959
0.0016384
0.0016198
0.00166743
0.00173015
0.00189408
0.00206107
0.00218391
0.00223201
0.00218167
0.00203845
0.00182569
0.00158828
0.00136577
0.0012602
0.00131107
0.00131841
0.00131373
0.0013083
0.0014285
0.00142217
0.00141603
0.00141307
0.00140548
0.00168872
0.00173988
0.00175029
0.00174762
0.00174272
0.00187157
0.00186372
0.00185516
0.00185159
0.00185033
0.00203186
0.00203944
0.00204392
0.00204932
0.00205346
0.00195279
0.00194773
0.00194359
0.00194667
0.0019505
0.00211073
0.00208971
0.00208525
0.00208877
0.00209308
0.0020181
0.00201596
0.00201689
0.00202619
0.00203357
0.00213458
0.00210245
0.00208991
0.0020884
0.00208953
0.00209391
0.0020924
0.0020899
0.00208913
0.00210238
0.00224033
0.0022394
0.00223318
0.00223077
0.00223118
0.00218077
0.00218013
0.0021808
0.00218905
0.00222182
0.00214554
0.00214477
0.00213677
0.00213313
0.002132
0.00212069
0.00212255
0.00212692
0.00213701
0.00215248
0.00208126
0.00206907
0.0020676
0.00206918
0.00207064
0.00212379
0.00212355
0.00212277
0.00212063
0.00211418
0.00214896
0.0021099
0.00216168
0.00215556
0.00208564
0.00208194
0.00208508
0.00208763
0.00208836
0.00202576
0.00202415
0.00202293
0.00202701
0.0020506
0.00200028
0.00199576
0.00199857
0.00199926
0.00199889
0.00198987
0.00198845
0.00198604
0.00198367
0.0019923
0.00199059
0.00199492
0.00199606
0.00199579
0.00199537
0.0019545
0.0019552
0.00195631
0.00196059
0.00198078
0.00214249
0.00213688
0.00212206
0.00211108
0.00210502
0.00207986
0.00208314
0.00208996
0.00210645
0.00215778
0.00206499
0.00208105
0.00207331
0.00207063
0.00206928
0.00207028
0.0020155
0.00201717
0.00202093
0.00203298
0.00195253
0.0019633
0.00196887
0.00197223
0.00210025
0.00209698
0.00209308
0.00208333
0.00205603
0.00192835
0.00198877
0.00212322
0.00202302
0.00192421
0.00191046
0.00209163
0.0019347
0.00192638
0.00195792
0.00196872
0.00197053
0.00196973
0.00188098
0.0018805
0.00187884
0.00187768
0.00188528
0.00194429
0.00197869
0.00198212
0.00198041
0.00197811
0.00201899
0.00202627
0.00203265
0.00202771
0.0019705
0.00196224
0.00200975
0.00203284
0.00203971
0.00204463
0.00205088
0.00201109
0.00201358
0.00201426
0.00200661
0.0019408
0.00194859
0.00195822
0.00196471
0.00206733
0.0020607
0.00205254
0.00204067
0.00202355
0.00195647
0.00205247
0.0020616
0.00203251
0.00195551
0.00176674
0.00194174
0.00190277
0.00166266
0.00162397
0.00184857
0.00178459
0.00155146
0.00180278
0.00187582
0.00194107
0.0019817
0.00183557
0.00185199
0.00190106
0.00187535
0.00184129
0.00193182
0.00199043
0.00192254
0.00205674
0.00204849
0.00198614
0.00193165
0.00189106
0.00200444
0.00193306
0.00176898
0.00202686
0.00205008
0.00205212
0.00207614
0.00203737
0.00203474
0.00201071
0.00204531
0.00169912
0.00185709
0.00190724
0.00169144
0.0017801
0.00192461
0.00196776
0.00199816
0.00188339
0.00195337
0.0018991
0.00178321
0.0017511
0.00188928
0.0019248
0.00171062
0.00179495
0.00195547
0.00196478
0.00177504
0.00187219
0.00199246
0.00200289
0.00190522
0.00179488
0.00199046
0.00194975
0.00171363
0.00195951
0.00194765
0.00191889
0.00187173
0.00179375
0.00178403
0.00178713
0.00178886
0.00201455
0.00201506
0.00201593
0.00202352
0.00207102
0.0022874
0.00223473
0.00221546
0.00220569
0.00220085
0.00200426
0.00199925
0.00199422
0.00200281
0.00207674
0.00224851
0.00222282
0.00220948
0.0022032
0.00220049
0.00215816
0.00215504
0.00215209
0.00215692
0.00220428
0.00213641
0.00211785
0.0020031
0.00195799
0.00190808
0.00190071
0.00190224
0.00190306
0.00209226
0.00209408
0.00209493
0.00209443
0.00211177
0.0022823
0.0022491
0.00223585
0.00223211
0.00223138
0.00215279
0.00214867
0.00214383
0.00214624
0.00218669
0.00232385
0.00231951
0.00231368
0.00231106
0.00230998
0.00223217
0.00223211
0.00223195
0.00223486
0.00226219
0.00225939
0.00223894
0.00215647
0.00210288
0.00202345
0.00199064
0.00198849
0.00199023
0.00199137
0.00216926
0.00216968
0.00217279
0.00218386
0.00219897
0.00226651
0.00226071
0.00225477
0.00225413
0.00225544
0.00228965
0.00228772
0.0022844
0.00227951
0.00227915
0.00231203
0.0023225
0.00232733
0.00232761
0.00232695
0.0023416
0.00244718
0.00240918
0.00229011
0.00212642
0.00201993
0.00204511
0.00205381
0.00205329
0.00205078
0.00218698
0.00218216
0.00217934
0.00218321
0.00218914
0.00222702
0.00224292
0.00224847
0.00225555
0.00226246
0.00214812
0.00215133
0.00215166
0.00213789
0.0020871
0.00188821
0.00186823
0.00186714
0.00187365
0.00187994
0.00173969
0.00174395
0.00174683
0.0017382
0.00171098
0.00147284
0.00146235
0.00145631
0.00145679
0.00145895
0.00146051
0.00145688
0.00145335
0.00145424
0.00146118
0.00121134
0.0012064
0.00120867
0.00121514
0.00122125
0.00118461
0.00118423
0.00118532
0.00118754
0.00118419
0.00101493
0.00100285
0.00100413
0.00100639
0.00100852
0.00092363
0.000918404
0.000915504
0.000919769
0.000945355
0.00117056
0.0011852
0.00118756
0.00118192
0.00117501
0.00131534
0.00131014
0.00130565
0.00130907
0.0013308
0.00154967
0.00153272
0.00153125
0.00153528
0.00154005
0.00172535
0.00173055
0.00173507
0.00173111
0.0017051
0.00181461
0.00183893
0.0018452
0.00184548
0.00184526
0.00175591
0.00175865
0.00175991
0.00175665
0.00176355
0.00183548
0.0018137
0.00181506
0.00181959
0.00182356
0.00193475
0.00193513
0.00193498
0.00193167
0.0019233
0.00191107
0.00189136
0.00188867
0.00188854
0.00188769
0.0021019
0.0021037
0.00210997
0.00211997
0.00212878
0.00187976
0.0018554
0.00185507
0.00185854
0.00186069
0.00192067
0.00192138
0.0019222
0.00192147
0.00191769
0.00191963
0.00189422
0.00188918
0.00188815
0.00188775
0.00203437
0.00203946
0.00204953
0.00206655
0.00207953
0.0020961
0.00206341
0.00205035
0.0020447
0.00204204
0.00184848
0.00184589
0.00184188
0.00183875
0.00185046
0.00187505
0.00186215
0.00186332
0.00186532
0.0018663
0.00210693
0.00211677
0.00213394
0.00215788
0.00216118
0.002223
0.00223974
0.00222065
0.002204
0.00219407
0.00220881
0.00221142
0.00221821
0.00223083
0.0022296
0.00231386
0.00230092
0.00230032
0.00229968
0.00230127
0.00207859
0.00207418
0.00206798
0.00206361
0.00206474
0.0019315
0.0019442
0.00198593
0.00200323
0.0020189
0.00203186
0.00206715
0.00206425
0.00205865
0.00203575
0.00215616
0.0021558
0.0021562
0.0021577
0.00213906
0.00213074
0.00212481
0.00212273
0.00213788
0.00214634
0.00205921
0.00210775
0.00198606
0.00188388
0.00213433
0.00207357
0.00201674
0.00194511
0.00179591
0.00191636
0.00190099
0.0018072
0.00185411
0.00184394
0.00193533
0.00196536
0.00191078
0.00195276
0.00197819
0.0019192
0.00183643
0.00194857
0.00191391
0.00177242
0.00180792
0.00190065
0.00185606
0.00180111
0.00191204
0.00163809
0.00145593
0.0012984
0.00121547
0.00119281
0.00118701
0.00116067
0.00110516
0.00103682
0.000960128
0.00087907
0.000790431
0.000697795
0.000602117
0.000686147
0.000674844
0.0006739
0.000675973
0.000677755
0.000808513
0.000819498
0.000831406
0.000838397
0.00083415
0.000892582
0.000894317
0.000891801
0.000886517
0.000881517
0.000833576
0.000843388
0.000853385
0.000859227
0.000869476
0.00110197
0.00105655
0.00104506
0.00104587
0.00104957
0.00119438
0.00120276
0.00121019
0.0012099
0.00121203
0.00149172
0.00146879
0.00145662
0.00145545
0.00145642
0.0016545
0.00165292
0.0016553
0.00166962
0.00170911
0.00154468
0.00155038
0.00155066
0.00154934
0.00154737
0.00150788
0.00151203
0.00151457
0.00151617
0.00153794
0.00186352
0.00184236
0.00182464
0.00181798
0.00181636
0.00188781
0.00188857
0.001893
0.00191007
0.00196674
0.00167327
0.00168043
0.00168157
0.00168118
0.00168046
0.00170832
0.00171041
0.00171317
0.0017181
0.001739
0.00197221
0.00196983
0.0019531
0.00194235
0.00193715
0.00191763
0.00192039
0.00192713
0.00194402
0.00199087
0.00171526
0.00170802
0.00170931
0.00171159
0.00171227
0.00178239
0.00178308
0.00178378
0.00178319
0.00178201
0.00185956
0.00183742
0.00183104
0.00182788
0.00182584
0.00204969
0.00206007
0.00207691
0.00209683
0.00209078
0.00176775
0.00177291
0.00177973
0.00178312
0.00178461
0.00182868
0.00182549
0.00181793
0.00180276
0.00178431
0.00180429
0.00182324
0.00184161
0.00185373
0.00186022
0.00195536
0.00194821
0.00193591
0.00191423
0.00187923
0.0017881
0.00183467
0.00185837
0.00187019
0.00187617
0.00213703
0.00213165
0.00212297
0.00210066
0.00202618
0.00219537
0.00223147
0.0022311
0.00222832
0.00222779
0.00210783
0.00211141
0.00211429
0.00210781
0.00203391
0.0020417
0.00205396
0.0020657
0.00212667
0.00211087
0.00209342
0.00207798
0.00208604
0.00210141
0.00210534
0.00210631
0.00234105
0.0023374
0.0023334
0.00231694
0.00221161
0.00200364
0.00206774
0.00206188
0.0019128
0.00188813
0.00206848
0.00205972
0.00188092
0.0019512
0.00211315
0.00214518
0.00215903
0.00216575
0.0021726
0.00204784
0.0020364
0.00201769
0.00199651
0.00228672
0.00231051
0.00231095
0.00231123
0.0021945
0.00218905
0.00218045
0.00216456
0.00214212
0.00229838
0.00229457
0.00229531
0.0022886
0.00228472
0.002302
0.00229741
0.00229181
0.00228007
0.00233776
0.00204263
0.00205948
0.00206309
0.00206793
0.00207565
0.00208309
0.00217075
0.00217219
0.00217213
0.00215615
0.00206673
0.00209323
0.0021035
0.00211103
0.00205383
0.00204534
0.00203591
0.00202563
0.00199504
0.00190177
0.00183643
0.00205693
0.0019962
0.0020092
0.00200954
0.00193083
0.00191667
0.00191141
0.00207564
0.00199377
0.00189954
0.00191727
0.00197385
0.00189407
0.00196268
0.001944
0.00191753
0.00164487
0.00127892
0.00090649
0.00063912
0.000539576
0.00059938
0.000732716
0.000835903
0.0008449
0.000761523
0.000632231
0.000550856
0.000482464
0.000449699
0.000393167
0.00041551
0.00040155
0.000394271
0.000387546
0.000382043
0.000449523
0.00045056
0.000454205
0.000464992
0.000498934
0.000542931
0.000530821
0.000524497
0.000515923
0.000507241
0.000652774
0.000655343
0.000661649
0.000677645
0.000705532
0.000906197
0.000862274
0.000841685
0.000832921
0.000828696
0.000941336
0.000948857
0.000954984
0.000957204
0.000969984
0.00130362
0.00126818
0.00124828
0.00124201
0.00124165
0.00144134
0.001444
0.00145085
0.00147244
0.00154317
0.00128542
0.0012928
0.00129288
0.00129194
0.00129142
0.00132567
0.00133002
0.00133331
0.00133661
0.00135946
0.00172993
0.00171222
0.00169052
0.00167716
0.00167119
0.00173308
0.00173579
0.00174272
0.00176178
0.00182107
0.00145913
0.00146913
0.00147113
0.00147153
0.00147084
0.00157425
0.00157713
0.00158079
0.00158634
0.00160412
0.00185895
0.00185864
0.00183927
0.00182411
0.00181618
0.00183656
0.00184399
0.0018584
0.00188091
0.00189255
0.0019767
0.00194728
0.00192744
0.00191588
0.00191011
0.00161577
0.00161409
0.00160784
0.00159512
0.00158668
0.00166552
0.00167368
0.00168396
0.0016905
0.00169305
0.00181788
0.00181502
0.0018112
0.00180671
0.00179202
0.00190464
0.00193243
0.00193775
0.00193904
0.00193959
0.00206216
0.00206151
0.00205986
0.00205314
0.00201987
0.00199794
0.0020265
0.0020328
0.0020348
0.00203498
0.00207291
0.00206448
0.00205013
0.00202544
0.00198017
0.00205708
0.00206257
0.00207278
0.00208111
0.00208618
0.00222944
0.00223451
0.00224195
0.00224235
0.00218641
0.0020938
0.0021841
0.00219392
0.00219215
0.00219032
0.00210208
0.00209784
0.00209174
0.00208246
0.0020322
0.00214324
0.00214749
0.00214433
0.00214284
0.0021456
0.00212637
0.00198558
0.00200825
0.00197248
0.00206666
0.00220016
0.00183609
0.00200633
0.00221359
0.00186418
0.00220544
0.00293204
0.00205756
0.00218684
0.0022724
0.00255799
0.00202464
0.00164786
0.00114213
0.000717194
0.000437306
0.000374356
0.000471613
0.000622776
0.000720405
0.000702955
0.000601861
0.000485764
0.000396872
0.00036676
0.000327387
0.000428667
0.000432724
0.000429562
0.000426218
0.000424224
0.000326142
0.000332638
0.000336967
0.000337557
0.000343582
0.00058942
0.00058186
0.00056431
0.000549863
0.000540897
0.000781895
0.00079136
0.000803828
0.000815857
0.000832988
0.000768664
0.000751911
0.000749768
0.000745651
0.000740232
0.00113545
0.00114622
0.00116542
0.00119389
0.00122253
0.00138462
0.00135103
0.00133513
0.0013231
0.00131497
0.00124877
0.00125235
0.00125583
0.00125995
0.00128036
0.00166139
0.00164049
0.00161455
0.00159741
0.0015884
0.0016586
0.0016645
0.00167415
0.00168778
0.001707
0.00133675
0.00132402
0.00132794
0.00133329
0.00133649
0.00146192
0.00146177
0.00146142
0.00146183
0.0014738
0.00155309
0.00155665
0.00155546
0.00155246
0.0015499
0.00164519
0.00165347
0.00166232
0.00166173
0.00162687
0.0016887
0.00172377
0.00172043
0.00170878
0.00169735
0.00192738
0.00193485
0.00194623
0.00194976
0.001897
0.00191441
0.00194419
0.00194781
0.00194885
0.00194887
0.00197139
0.00197008
0.00196563
0.00195459
0.00190658
0.00204828
0.00209384
0.00210623
0.00211229
0.00211597
0.0022007
0.00220201
0.00220308
0.00219847
0.00215648
0.0022266
0.00224776
0.0022529
0.00225803
0.00226224
0.00234226
0.00234806
0.00235651
0.00235249
0.00226747
0.00207838
0.0020463
0.00205677
0.00207756
0.00209253
0.00239127
0.00238752
0.0023823
0.00237374
0.0023283
0.0022857
0.00227037
0.00227019
0.00227475
0.0022781
0.00225127
0.00225714
0.00226404
0.00225664
0.00218142
0.00202777
0.00214183
0.00215188
0.00214504
0.00213828
0.00227063
0.00227704
0.00228825
0.00228244
0.00215098
0.00189697
0.00192277
0.00193489
0.00194328
0.00194835
0.00208846
0.00209229
0.00209458
0.00208489
0.00204554
0.00204297
0.00194424
0.00193749
0.00204481
0.00206069
0.00192709
0.00198476
0.00199498
0.00199892
0.00200035
0.00206862
0.00207021
0.00207214
0.00207077
0.0020123
0.0019785
0.00200528
0.00195366
0.00192046
0.00191223
0.00194569
0.00196147
0.00196652
0.00190631
0.00196134
0.00199781
0.00197573
0.00197611
0.00218793
0.00207065
0.00201903
0.00207137
0.00202015
0.00199505
0.00195756
0.00187891
0.00190581
0.0019718
0.00202068
0.00202516
0.00206524
0.00204334
0.00200231
0.00198624
0.0019757
0.00198552
0.00204376
0.00210233
0.0020517
0.00202332
0.00198367
0.00193754
0.00191955
0.0019829
0.00201405
0.00200679
0.00196042
0.00198673
0.00198838
0.00194167
0.0019366
0.0019787
0.00194974
0.00192323
0.00191506
0.00195196
0.00194763
0.00188537
0.00188532
0.00197427
0.00191932
0.00186305
0.00193145
0.00194305
0.0019795
0.0020192
0.00199354
0.00196216
0.00193592
0.00196396
0.00198751
0.00192871
0.00195405
0.00200046
0.00194864
0.00195605
0.00194302
0.00195187
0.00204491
0.00196115
0.00198263
0.00207994
0.00187416
0.00184401
0.0016617
0.0014436
0.00117828
0.000924743
0.000836909
0.000880392
0.00117231
0.00126342
0.00153355
0.00166342
0.00168542
0.00169676
0.00170529
0.0019931
0.00200837
0.00202556
0.00203444
0.00200828
0.00145958
0.00150619
0.0015141
0.0015146
0.00151146
0.00213385
0.00215367
0.00217916
0.00219316
0.00217926
0.00159471
0.0015461
0.00154104
0.0015439
0.00154455
0.00217257
0.0021924
0.00222207
0.00225399
0.00224688
0.0022501
0.00229664
0.00229636
0.0022843
0.00227309
0.00167838
0.00168031
0.00167828
0.00167326
0.00166253
0.00163923
0.00166599
0.00166253
0.00165896
0.00165593
0.00203039
0.00203946
0.00205239
0.00207351
0.0021565
0.00169804
0.00164228
0.00163732
0.00163946
0.00163874
0.00178445
0.00178652
0.00178991
0.00179969
0.00184446
0.00220034
0.00211577
0.00208808
0.00207609
0.00206919
0.00199359
0.00200116
0.00201555
0.00204315
0.00207669
0.00215034
0.00207061
0.00204904
0.00204207
0.00203909
0.00200022
0.00200391
0.00201411
0.00203735
0.00208014
0.00205107
0.0020081
0.00200256
0.00200473
0.00200744
0.00175873
0.00171715
0.00171256
0.00171275
0.00171155
0.00178468
0.00178532
0.00178485
0.00178716
0.0018132
0.00206315
0.00203226
0.00201198
0.00200309
0.00200055
0.0019792
0.00197655
0.00197658
0.00199106
0.00205904
0.00208082
0.00207935
0.00208285
0.00208325
0.00208226
0.00212427
0.00212419
0.00212379
0.00212101
0.00211299
0.00220461
0.00211836
0.00195324
0.00173789
0.00163405
0.0016296
0.00163202
0.00162933
0.00162493
0.00184457
0.00184551
0.00184933
0.00186617
0.00190115
0.0019006
0.00188177
0.00187429
0.00187506
0.0018774
0.00168739
0.00169273
0.00169768
0.00169398
0.00168131
0.00150838
0.00148783
0.00147588
0.00147193
0.00147084
0.0012331
0.00123291
0.00123647
0.00125132
0.00128185
0.00123677
0.00121901
0.00121292
0.00121312
0.00121458
0.00107545
0.00108433
0.00109343
0.00109607
0.00109094
0.00114528
0.0011776
0.00117733
0.00116632
0.00115526
0.000817198
0.000814306
0.000812708
0.000817028
0.000834449
0.000847683
0.000828712
0.000828996
0.0008337
0.00083738
0.000789438
0.000791495
0.000794507
0.000799884
0.000816093
0.000834951
0.000844601
0.000838043
0.000827091
0.000818197
0.000588794
0.000586583
0.000584577
0.000586138
0.000599073
0.000573889
0.000539338
0.000533635
0.00053424
0.000535406
0.000535819
0.000539123
0.000543179
0.000548015
0.000561231
0.00055251
0.000544369
0.000536539
0.00052738
0.000519533
0.000566959
0.00056716
0.000569484
0.000579342
0.000611605
0.000738325
0.000705461
0.000694971
0.000693097
0.000693011
0.000607392
0.000531858
0.00056729
0.000549383
0.00054183
0.000536436
0.000532402
0.000451691
0.000445876
0.000473003
0.000475764
0.000472567
0.000466841
0.000461717
0.000455453
0.000453783
0.000453479
0.000459029
0.000487679
0.000443402
0.000440393
0.00043772
0.000433548
0.000429834
0.000371252
0.000370885
0.000371
0.000373372
0.000384645
0.000332617
0.000322499
0.000319861
0.000321407
0.00032326
0.000364619
0.000366631
0.000370478
0.00038066
0.000407165
0.000431954
0.000422507
0.000418532
0.000411968
0.000405354
0.000548415
0.000552249
0.000560829
0.000577785
0.000603091
0.000816644
0.000769627
0.00075142
0.000741769
0.000735499
0.000771032
0.000778384