/*--------------------------------*- C++ -*----------------------------------*\
  =========                 |
  \\      /  F ield         | OpenFOAM: The Open Source CFD Toolbox
   \\    /   O peration     | Website:  https://openfoam.org
    \\  /    A nd           | Version:  7
     \\/     M anipulation  |
\*---------------------------------------------------------------------------*/
FoamFile
{
    version     2.0;
    format      ascii;
    class       volVectorField;
    location    "9";
    object      wallShearStress;
}
// * * * * * * * * * * * * * * * * * * * * * * * * * * * * * * * * * * * * * //

dimensions      [0 2 -2 0 0 0 0];

internalField   uniform (0 0 0);

boundaryField
{
    outlet1
    {
        type            calculated;
        value           uniform (0 0 0);
    }
    Wall
    {
        type            calculated;
        value           nonuniform List<vector> 
40276
(
(0.000427139 4.94836e-05 0.000168053)
(-0.000186875 -8.61265e-06 0.000415427)
(-0.000190602 -7.85579e-06 0.000407376)
(9.11062e-05 -5.76448e-06 0.000156368)
(7.88091e-05 2.45068e-05 0.000155775)
(8.3613e-05 5.88472e-05 0.000162317)
(9.84076e-05 4.15619e-05 0.000170561)
(0.000131204 3.70569e-05 0.000182572)
(0.000101494 2.61243e-05 0.000164398)
(9.87744e-05 6.17117e-06 0.000169908)
(0.000384765 3.81658e-05 0.000407654)
(0.000465087 1.55177e-05 0.00044193)
(0.000585083 3.99397e-05 0.000940475)
(0.000562825 3.81036e-05 0.000870811)
(0.000487224 -1.57198e-05 0.000334222)
(0.000435486 1.5651e-06 0.000363379)
(0.000393919 2.03329e-05 5.65944e-05)
(0.000351993 2.339e-05 2.31243e-05)
(-0.000113214 -1.14959e-05 -0.000174888)
(-0.000122458 -3.77027e-05 -0.000194991)
(-0.000155788 3.93341e-05 0.000211196)
(-0.000186907 4.43863e-05 0.000198031)
(-0.000119973 3.22378e-05 6.77033e-05)
(-0.000138833 2.96466e-05 6.40158e-05)
(-0.000100017 2.37012e-05 4.31637e-05)
(-0.000112265 2.47464e-05 3.73838e-05)
(-0.000123868 4.10554e-05 2.1932e-05)
(-0.000121326 4.14767e-05 1.60489e-05)
(-0.00018211 5.88031e-05 3.29096e-05)
(-0.000163474 5.0464e-05 2.39887e-05)
(-0.000120458 3.92633e-05 7.09103e-05)
(-0.000134779 4.70565e-05 7.82876e-05)
(-5.25587e-05 -3.17346e-06 0.000159637)
(-4.68022e-05 -4.86145e-06 0.000148367)
(-6.28133e-05 1.02877e-05 8.12784e-06)
(-6.16614e-05 1.16836e-05 7.67276e-06)
(0.000565568 6.66019e-05 0.000216972)
(0.000614916 4.86997e-05 0.000240703)
(0.00105396 0.000255104 0.000406378)
(0.00119105 0.000326826 0.000427491)
(0.000989879 6.40953e-05 0.000167005)
(0.000951412 3.65478e-05 0.000194224)
(-5.06626e-05 -1.4209e-05 -0.000382891)
(-3.08047e-05 -1.07518e-05 -0.000346597)
(-5.356e-05 -2.16702e-06 -0.000348319)
(-4.507e-05 -6.09593e-06 -0.000285691)
(-7.34044e-05 -4.03283e-07 -0.000293741)
(-5.60808e-05 -3.15402e-06 -0.000236573)
(-6.46255e-05 -8.31843e-07 -0.000203123)
(-6.27249e-05 1.00945e-06 -0.000168332)
(-5.13082e-05 -1.12947e-06 -0.000137396)
(-6.31528e-05 1.30472e-06 -0.000144207)
(-5.44035e-05 -1.67385e-07 -0.000114491)
(-5.75159e-05 2.12498e-06 -0.000115866)
(0.000441732 8.14152e-05 0.000261921)
(0.000460005 9.54561e-05 0.000231119)
(-1.67068e-05 1.29538e-05 0.000130118)
(6.41315e-05 2.20223e-05 0.000191126)
(-9.54928e-06 8.3484e-06 0.000132703)
(-0.000449302 -0.000151939 -0.000429928)
(-0.000478641 -0.000126579 -0.000440624)
(1.90658e-05 3.45653e-05 0.000291611)
(-1.27959e-05 -1.18142e-05 0.000225398)
(1.0671e-05 -1.07173e-06 -4.74649e-05)
(1.3502e-05 2.91338e-06 -4.4469e-05)
(6.70024e-06 -1.6827e-08 -4.34157e-05)
(2.03757e-06 -2.73402e-06 -4.18955e-05)
(1.16784e-05 5.48453e-08 -4.43935e-05)
(-0.000115832 -1.91079e-05 -0.000105425)
(-0.000127697 -8.69688e-06 -0.000114457)
(-5.18874e-05 4.12699e-06 -9.40321e-05)
(-5.28424e-05 1.0558e-07 -9.57707e-05)
(-1.72375e-05 1.28997e-06 -1.73791e-05)
(-1.72211e-05 1.30773e-06 -1.72064e-05)
(-1.56108e-05 1.36198e-06 -1.69306e-05)
(-1.47499e-05 1.66407e-06 -1.63064e-05)
(-1.68305e-05 7.59952e-07 -1.67486e-05)
(2.39483e-05 -1.76437e-06 -5.31958e-06)
(2.0782e-05 -1.81337e-06 -9.18187e-06)
(-1.15055e-06 4.43395e-06 3.04723e-07)
(-4.31901e-07 -2.33265e-07 2.28228e-07)
(7.55697e-06 -1.17197e-06 -3.94392e-07)
(1.84242e-05 -7.98716e-09 1.26558e-05)
(1.78604e-05 2.43065e-07 1.29871e-05)
(2.85299e-05 -1.36429e-06 2.00825e-05)
(5.86161e-06 5.09719e-07 -3.85485e-05)
(1.42403e-06 -1.89524e-06 -3.68781e-05)
(4.66783e-06 9.79187e-07 -3.38011e-05)
(2.57472e-05 -1.60362e-06 1.86119e-05)
(2.45677e-05 -1.15875e-06 1.77044e-05)
(2.10658e-05 -5.97543e-07 1.56645e-05)
(-4.42931e-05 -4.5633e-06 -4.00865e-05)
(4.06006e-07 -1.18383e-06 -3.24118e-05)
(3.50409e-06 1.29434e-06 -2.97552e-05)
(-3.11717e-07 -5.9699e-07 -2.86826e-05)
(-9.99259e-07 -3.41751e-07 -2.52336e-05)
(-1.62226e-06 5.35122e-08 -2.22405e-05)
(-2.45853e-06 2.18924e-07 -2.01812e-05)
(-5.84933e-06 -3.34607e-07 -1.63e-05)
(-6.51201e-06 -1.26275e-07 -1.53868e-05)
(-7.34908e-06 1.02041e-09 -1.50023e-05)
(-1.03305e-05 -2.98959e-07 -1.49684e-05)
(-1.05444e-05 -2.1876e-07 -1.53356e-05)
(-4.97341e-05 -9.72324e-07 -4.36296e-05)
(-1.08126e-05 -3.08748e-08 -1.61597e-05)
(-1.88829e-05 -3.45898e-06 -2.30474e-05)
(-1.57418e-05 -3.44225e-06 -1.84222e-05)
(-1.06526e-05 -1.27917e-07 -1.67143e-05)
(-1.05563e-05 3.81091e-08 -1.77206e-05)
(-1.01751e-05 -5.76256e-07 -1.80387e-05)
(-1.03575e-05 4.16999e-08 -1.91558e-05)
(-9.81661e-06 -6.35905e-07 -1.99045e-05)
(-9.21909e-06 -2.81084e-07 -2.03111e-05)
(-8.98082e-06 -1.08472e-06 -2.18382e-05)
(-8.64232e-06 -1.70826e-06 -2.04654e-05)
(4.12639e-06 -8.95866e-07 -2.65197e-05)
(4.01051e-06 -2.89982e-06 -2.78457e-05)
(2.56468e-06 -2.90915e-06 -2.62711e-05)
(-0.000277186 -6.29505e-05 0.000486822)
(-0.000280257 -6.14511e-05 0.000441411)
(-1.52934e-05 -1.24502e-06 5.37698e-06)
(-1.2649e-05 -1.41419e-06 6.53285e-06)
(-4.19585e-05 -1.75474e-06 1.60934e-05)
(-3.63749e-05 -3.0939e-06 1.49826e-05)
(-4.38572e-06 -8.13567e-06 -5.42768e-06)
(-2.07648e-06 -8.02174e-06 -2.66932e-06)
(-0.000127333 2.51838e-05 0.000183836)
(-0.000110579 3.38921e-05 0.000156371)
(-0.000160168 -1.79076e-05 0.000274242)
(-0.000139943 -2.39742e-05 0.000236066)
(-0.000102785 -6.24079e-06 0.000172578)
(-8.99268e-05 -9.2922e-06 0.000148532)
(-0.00015604 9.3545e-05 0.000465923)
(-0.000216159 0.000169253 0.000650894)
(7.25931e-06 -1.18117e-05 0.000188455)
(-1.41456e-06 -4.55401e-06 0.00015927)
(-0.000102184 2.75867e-05 0.000192853)
(-5.5844e-05 1.35176e-06 0.000167284)
(-0.000179781 -5.74866e-05 0.000489894)
(-0.000179373 -4.06856e-05 0.000490631)
(-0.000179238 -4.55142e-05 0.000524986)
(-0.000194859 -2.17783e-05 0.000526439)
(-0.000559602 1.72835e-06 -0.000151345)
(-0.000642146 2.44409e-06 -0.000183513)
(-2.27552e-05 -7.96789e-05 9.95785e-06)
(-2.65493e-05 -7.89428e-05 1.19239e-05)
(-2.14372e-05 -4.38676e-05 6.54881e-05)
(-2.52017e-05 -5.36562e-05 8.1828e-05)
(-2.90427e-05 -5.25524e-05 6.60871e-05)
(-2.32118e-05 -4.04564e-05 5.37487e-05)
(-1.54685e-05 -8.61463e-05 8.48782e-06)
(-1.98958e-05 -9.83539e-05 6.53327e-06)
(-2.34945e-05 -8.34771e-05 8.81936e-06)
(-2.18822e-05 -8.64848e-05 9.21273e-06)
(-2.31358e-05 -0.000128636 -1.56103e-05)
(-1.99742e-05 -0.000111411 -1.41258e-05)
(-7.64286e-06 -5.66219e-05 -3.31689e-06)
(-9.87873e-06 -5.05372e-05 -4.75771e-06)
(-6.09896e-05 -3.12517e-05 9.45613e-05)
(-5.57776e-05 -3.30774e-05 8.93613e-05)
(9.05428e-05 3.7926e-06 -0.000233547)
(9.86957e-05 -5.1382e-06 -0.000218255)
(-0.000137146 -5.95215e-05 -1.25074e-05)
(-0.00013597 -6.65093e-05 -1.47019e-05)
(-0.000297942 -4.79643e-05 0.000147168)
(-0.000319804 -5.20935e-05 0.000138625)
(-0.000291632 -7.47162e-05 -2.60514e-05)
(-0.000285017 -6.19231e-05 -3.52605e-05)
(-0.000174366 0.000192813 0.000237401)
(-0.000168277 0.000241363 0.000220525)
(-0.000248928 -4.48303e-05 1.31643e-05)
(-0.000131102 -4.67478e-05 -1.84825e-05)
(-0.000206699 -7.74369e-05 7.46598e-05)
(-0.000178089 -7.58583e-05 6.31345e-05)
(-0.000227573 -5.18846e-05 5.88109e-05)
(-6.74113e-05 -4.22664e-05 -7.10717e-06)
(-3.91059e-05 -2.09135e-05 6.05058e-05)
(-3.22261e-05 -1.93915e-05 5.58598e-05)
(0.000540239 -0.000210262 0.00041026)
(0.000497058 -0.000185559 0.000343041)
(0.000475841 -0.000262873 0.000227227)
(0.000451573 -0.00019589 0.000257682)
(0.000459672 -0.000226095 0.000256443)
(0.000227633 -0.000142743 0.000185043)
(0.000321761 -0.000200637 0.000216124)
(0.00025162 -0.000145269 0.000199856)
(0.000419475 -0.000186899 0.000346622)
(0.000441018 -0.000228763 0.000329617)
(0.000436838 -0.000225152 0.000287581)
(0.000335005 -0.000220366 0.000188799)
(0.000439204 -0.000272056 0.000188721)
(0.000365955 -0.000198891 0.00024291)
(0.000136147 -6.58279e-05 0.00015991)
(0.000221151 -0.00014403 0.000184753)
(0.000170138 -8.2431e-05 0.000179797)
(0.000125838 -5.02888e-05 0.000164037)
(7.28863e-05 5.0286e-05 0.000155691)
(0.000288922 0.000112982 3.9629e-05)
(0.000350674 0.000112088 9.18782e-05)
(0.000299726 7.47958e-05 0.000104758)
(0.000317452 5.9416e-05 4.32861e-05)
(0.000378247 6.33284e-05 9.53946e-05)
(0.000341712 9.99342e-05 8.54502e-05)
(0.000306813 7.46601e-05 6.2557e-05)
(9.69725e-05 5.54715e-05 8.22717e-05)
(0.000114497 6.61306e-05 8.21014e-05)
(8.93664e-05 1.38127e-05 0.000135176)
(9.38084e-05 1.98704e-05 0.000133611)
(0.000106301 1.18167e-05 0.000156964)
(8.80068e-05 2.37517e-06 0.000141548)
(9.96487e-05 3.65038e-05 0.000130711)
(8.00595e-05 3.70571e-05 9.92743e-05)
(7.86198e-05 4.07733e-05 7.2226e-05)
(7.25125e-05 2.16293e-05 8.96538e-05)
(6.57682e-05 1.02671e-05 0.000104865)
(5.12351e-05 2.68399e-06 8.31874e-05)
(6.47878e-05 -2.31337e-06 0.00010128)
(5.57869e-05 1.88494e-05 6.98363e-05)
(4.85687e-05 1.68281e-05 5.9761e-05)
(5.20437e-05 1.56182e-05 6.80039e-05)
(0.000154627 9.40659e-05 4.12567e-05)
(0.00018688 0.000104 6.11925e-05)
(0.000191229 9.38735e-05 7.24624e-05)
(0.000183204 8.87105e-05 4.13088e-05)
(0.000113546 6.82684e-05 6.99211e-05)
(0.000131257 7.75648e-05 4.54259e-05)
(0.000140451 8.32551e-05 2.55079e-05)
(0.00014319 7.08451e-05 3.73079e-05)
(0.000124713 6.88178e-05 4.16157e-05)
(0.000272533 0.000111884 3.22266e-05)
(0.000224593 0.00010644 2.97282e-05)
(0.000289493 0.000102704 4.65731e-05)
(0.000263272 7.45486e-05 3.17519e-05)
(0.00023537 9.83852e-05 1.81737e-05)
(0.000215479 7.39891e-05 2.43945e-05)
(8.05715e-05 4.92887e-05 4.89533e-05)
(8.69935e-05 4.69887e-05 5.51886e-05)
(6.92693e-05 3.54227e-05 6.15244e-05)
(0.000106644 6.61308e-05 4.26281e-05)
(5.98397e-05 2.91539e-05 5.41172e-05)
(7.19309e-05 4.49916e-05 3.31445e-05)
(0.000118261 6.46998e-05 5.26735e-05)
(0.000155192 8.10996e-05 2.12101e-05)
(7.73213e-05 5.2313e-05 6.55292e-06)
(8.9758e-05 4.95673e-05 2.47594e-05)
(7.86671e-05 5.13837e-05 1.88654e-05)
(0.000141773 8.41046e-05 4.55344e-06)
(0.000173199 8.75888e-05 -1.73993e-05)
(0.000156697 6.10124e-05 2.04789e-05)
(0.000152113 7.52837e-05 7.65942e-06)
(0.000315402 2.83891e-05 0.000551455)
(0.000353494 5.73129e-05 0.000641025)
(0.00032141 -1.35548e-06 0.000573345)
(0.000333115 2.90095e-05 0.000589532)
(0.000353061 9.86781e-05 0.0003914)
(0.000381071 0.000103705 0.000464385)
(0.000273264 9.38711e-05 0.00038208)
(0.000297924 8.80473e-05 0.000437286)
(0.000294656 0.000106071 0.000439643)
(0.000276016 8.77513e-05 0.000451892)
(0.000391013 0.000156549 0.000504063)
(0.000327664 0.000132361 0.000378136)
(0.000372562 0.000137773 0.000470924)
(0.000237157 8.98437e-05 0.000383616)
(0.000317576 0.00011552 0.000479099)
(0.000403661 0.000128997 0.000380075)
(0.000363099 0.000134487 0.000449694)
(0.00035555 0.000131013 0.000450123)
(0.000410598 0.000135713 0.000560675)
(0.000426024 0.000169716 0.000495486)
(0.000469211 0.000183739 0.000492875)
(0.000462066 0.000192181 0.000465925)
(0.000451194 0.000159188 0.00055658)
(0.000435698 0.000163769 0.000556434)
(0.000394546 7.2145e-05 0.000459624)
(0.000505597 7.76e-05 0.000491163)
(0.000387672 9.12103e-05 0.000473052)
(0.000300949 9.34895e-05 0.000370856)
(0.000379751 8.9966e-05 0.000462486)
(0.000414962 6.99093e-05 0.000403095)
(0.000311405 5.52729e-05 0.000303146)
(0.000336873 0.000101098 0.000364353)
(0.000360812 8.30579e-05 0.00035277)
(0.000365095 9.31245e-05 0.000344759)
(0.00048756 -4.16066e-05 0.000426258)
(0.000501626 -5.93552e-05 0.000423924)
(0.000512437 -0.00013624 0.000412385)
(0.00040147 -6.20916e-05 0.000368273)
(0.000482686 -0.000116866 0.000324661)
(0.000379427 -9.24162e-06 0.000339042)
(0.000526381 -0.000126874 0.00035353)
(0.000361436 -2.77271e-05 0.00029204)
(0.000465695 -9.71984e-05 0.000284738)
(0.000543438 -0.000204952 0.000270795)
(0.000340852 5.74542e-05 0.000354129)
(0.000340442 8.54544e-05 0.000372473)
(0.000379542 2.47605e-05 0.000310952)
(0.000377414 6.39262e-05 0.000328516)
(0.000394724 0.000141926 0.000375877)
(0.000429459 0.000148122 0.000508529)
(0.000427128 0.000145999 0.000455728)
(0.000441114 0.000126917 0.000370145)
(0.000496928 0.000162026 0.000414126)
(0.000496919 0.000190084 0.000522532)
(0.000447538 0.000158665 0.000521842)
(0.000472581 0.000156016 0.000550736)
(0.000471348 0.000172312 0.000397335)
(0.00045134 0.000158804 0.000523244)
(0.000451534 0.000163989 0.000521803)
(0.000572874 0.000208595 0.000656367)
(0.00054612 0.000195886 0.000512132)
(0.000401252 0.000116483 0.000368389)
(0.000569123 0.00017929 0.000420442)
(0.00045174 0.000104267 0.000392606)
(0.000580816 0.00014674 0.000398951)
(0.00051329 0.000178021 0.000439161)
(0.000517843 0.000162801 0.000510673)
(0.000694381 0.000261652 0.000523514)
(0.000549916 0.000186766 0.000433261)
(0.000525041 0.000159481 0.000456404)
(0.000734661 0.000258527 0.000483767)
(0.000568352 0.000245817 0.000484055)
(0.00060473 0.000209399 0.000591425)
(0.00055997 0.000182314 0.000624603)
(0.000662894 0.000226201 0.000620969)
(0.000660256 0.000231393 0.000599553)
(0.000350408 0.000140732 0.000455964)
(0.000341875 0.000131437 0.00045002)
(0.000235101 7.07811e-05 0.000425259)
(0.000338842 0.000128852 0.000488253)
(0.000426298 0.000121642 0.00063203)
(0.000389958 0.000112059 0.000580208)
(0.000378688 0.000146918 0.000492041)
(0.0003982 0.000154901 0.000510926)
(0.000381309 0.000147915 0.000560246)
(0.000362705 6.26254e-05 0.000648384)
(0.000313376 4.34446e-05 0.000580108)
(0.000367882 0.000109049 0.000608032)
(0.000350642 9.56269e-05 0.00060363)
(0.000313684 4.28006e-05 0.000507706)
(0.000424745 0.000171018 0.000538406)
(0.000449595 0.000139413 0.000628112)
(0.0004011 0.000122874 0.000611298)
(0.000386691 -4.85398e-06 0.000638355)
(0.000476207 0.00014479 0.000711453)
(0.000358044 6.01463e-05 0.000604756)
(0.000463934 0.00018691 0.000524146)
(0.000502809 0.000195717 0.000562402)
(0.000447807 0.000141597 0.000624477)
(0.00043869 0.000176216 0.000559773)
(0.000506941 0.000205214 0.000563397)
(0.000503646 0.000127785 0.000695345)
(0.000514001 0.000145294 0.000782893)
(0.000409761 4.84104e-05 0.000674692)
(0.000375881 4.63393e-05 0.000615292)
(0.000407823 7.81512e-05 0.000649335)
(0.000463144 0.000130272 0.000690349)
(0.000395442 7.48668e-05 0.000607643)
(0.00051446 0.000220106 0.000602382)
(0.000513136 0.000106097 0.000750343)
(0.000593126 0.000191919 0.000852892)
(0.000282432 1.17151e-05 0.000493143)
(0.000293611 5.55102e-05 0.000501877)
(0.000358177 0.000131899 0.000560448)
(0.000376964 8.38406e-05 0.000638495)
(0.000355284 2.62274e-05 0.000589165)
(0.000438156 9.36778e-05 0.000695887)
(0.000336307 -1.22144e-05 0.000568697)
(0.000338319 4.03335e-05 0.000559851)
(0.000431721 0.000143474 0.000678737)
(0.000360364 4.58907e-05 0.000613249)
(0.000315242 3.70993e-05 0.000529008)
(0.000383618 -4.72947e-06 0.000632997)
(0.000333235 4.29202e-05 0.000559669)
(0.000354295 4.59683e-05 0.000584215)
(0.000430671 4.28107e-05 0.000703604)
(0.000336557 8.7486e-05 0.000578777)
(0.000335423 5.99134e-05 0.000565469)
(0.000427954 -5.76625e-05 0.000656073)
(0.000479455 0.000129236 0.000754833)
(0.000412448 -2.13212e-05 0.000694359)
(0.000524687 6.55665e-05 0.000857985)
(0.000400592 1.27829e-05 0.00066927)
(0.000420805 3.55335e-05 0.000685612)
(0.000530127 0.00016002 0.000769879)
(0.000424993 5.36575e-05 0.000679514)
(0.000485774 3.52154e-05 0.000773451)
(0.000523418 4.5133e-05 0.000857749)
(0.000533526 1.93041e-05 0.000856511)
(0.000420827 3.55047e-05 0.000674504)
(0.00047591 4.14455e-05 0.000755144)
(0.000425532 1.48644e-05 0.000675801)
(0.000485496 4.90522e-05 0.000768307)
(0.000547989 0.000176619 0.000684625)
(0.00053628 0.000193252 0.000612228)
(-2.10024e-05 -4.91047e-05 0.000160193)
(0.000566814 0.000154981 0.000775045)
(0.000493059 0.000140582 0.000663568)
(0.000616132 0.000228256 0.000663524)
(0.00057532 0.000222525 0.000599828)
(0.000610562 0.000215385 0.000673477)
(-2.52596e-05 -4.87801e-05 0.000159632)
(0.00054437 0.000173768 0.000710179)
(0.000564392 0.000209291 0.000657139)
(0.000611663 0.000230184 0.000684981)
(0.000556364 0.000168971 0.00076449)
(0.000625639 0.000179032 0.000912707)
(-2.2901e-05 -4.85623e-05 0.000156913)
(0.000469475 7.32304e-05 0.000727805)
(0.000433846 6.35192e-05 0.000710692)
(0.000467625 9.75618e-05 0.000705817)
(0.000527149 5.99919e-05 0.000796155)
(0.00046453 0.000107674 0.000702923)
(-2.53704e-05 -3.80758e-05 0.000159925)
(0.000576484 0.00023693 0.000662924)
(0.000594994 0.00012197 0.000837228)
(0.000682304 0.000217334 0.00093016)
(0.000656746 0.000219829 0.000773196)
(0.000715384 0.000252754 0.000647662)
(0.000772078 0.000285075 0.000655884)
(0.000646342 0.00019127 0.000832977)
(0.000604829 0.000176119 0.000745278)
(0.000634057 0.000258069 0.000626526)
(0.000667792 0.000237697 0.000678553)
(0.000642413 0.000204179 0.000758736)
(0.000712043 0.000245639 0.000809387)
(0.000737045 0.000283537 0.000775753)
(0.000657787 0.000205036 0.000836405)
(0.000685036 0.00017208 0.000940512)
(0.00056205 0.000138245 0.000782959)
(0.000625999 0.000139871 0.000973923)
(0.00050955 0.000105404 0.000751706)
(0.000587241 8.10453e-05 0.000888557)
(0.000729927 0.000241503 0.00092499)
(0.0006062 0.000196798 0.000765324)
(0.000644883 0.000168745 0.000920228)
(0.000536823 8.97161e-05 0.000866315)
(0.000556767 0.000150431 0.000787525)
(0.000728135 0.000131953 0.00102225)
(0.000640717 0.000146483 0.000994641)
(0.000591311 6.58744e-05 0.000949462)
(0.000592738 1.97131e-05 0.000944131)
(0.000474803 2.93137e-05 0.000788078)
(0.00046741 6.59801e-05 0.000733627)
(0.000602046 0.000119717 0.000871418)
(0.000614357 0.000126321 0.000960216)
(0.000577404 2.74568e-05 0.000904653)
(0.000593181 3.797e-05 0.000934361)
(0.000602555 -3.97912e-05 0.000936526)
(0.000584243 3.84723e-05 0.000894359)
(0.000668832 0.000131887 0.000971225)
(-3.1343e-05 -4.31736e-05 0.000168311)
(0.0005008 -2.53082e-06 0.000820563)
(0.000455803 5.65723e-05 0.000717981)
(0.00064918 0.000149624 0.000956732)
(0.000675556 0.00018948 0.00101274)
(0.000564705 -1.95396e-06 0.000943915)
(0.000702435 6.21837e-05 0.00110961)
(0.000525759 4.06991e-05 0.000827425)
(0.000649388 2.91114e-05 0.000996198)
(0.000519022 5.13807e-05 0.000821236)
(0.00050002 -1.98841e-05 0.0007615)
(0.000642431 -9.0721e-05 0.000952475)
(0.000687648 3.12181e-05 0.00109014)
(0.000688522 -3.26629e-07 0.00107925)
(0.000368322 -5.07693e-05 0.000536198)
(0.000290317 2.01532e-05 0.00045065)
(0.000325223 9.90567e-06 0.000467382)
(0.000314737 1.01043e-05 0.000481973)
(0.000226351 4.10477e-05 0.00040493)
(0.00030075 2.83341e-05 0.000466253)
(0.000384538 3.21413e-06 0.000500165)
(0.000301574 4.69263e-05 0.00047158)
(0.000350111 4.50293e-05 0.000622045)
(0.000351777 6.21839e-05 0.000596691)
(-2.31138e-05 -4.18146e-05 0.000153493)
(-2.67811e-05 -4.38468e-05 0.000160391)
(-2.47819e-05 -4.05143e-05 0.000148572)
(-2.62643e-05 -3.68366e-05 0.000149435)
(0.000392922 3.32845e-05 0.000614883)
(0.000355556 7.56629e-05 0.000563846)
(0.000423583 1.4886e-05 0.000568598)
(0.00038014 3.22599e-05 0.000511356)
(0.000398151 -1.32526e-05 0.000513922)
(0.000394835 3.84397e-06 0.000485083)
(-2.97054e-05 -3.62265e-05 0.000154808)
(0.000417027 1.99852e-06 0.000537272)
(-3.50274e-05 -2.88996e-05 0.000164883)
(-3.01209e-05 -3.46085e-05 0.0001559)
(0.000448461 1.14767e-05 0.000222711)
(0.000446012 1.55333e-05 0.000271298)
(0.000424747 -1.47933e-05 0.000257494)
(-3.34604e-05 -3.44523e-05 0.000153927)
(-2.6513e-05 -3.83282e-05 0.000164552)
(-2.59091e-05 -4.18679e-05 0.000161097)
(-3.23119e-05 -3.37733e-05 0.000174988)
(-3.38523e-05 -4.23088e-05 0.000182591)
(-2.9696e-05 -3.02971e-05 0.000166603)
(-2.85604e-05 -2.62501e-05 0.000159408)
(-3.46572e-05 -3.449e-05 0.000158996)
(0.000397123 6.35e-05 7.10986e-05)
(0.000458242 6.41116e-05 0.000136986)
(0.000376925 3.2617e-05 7.93594e-05)
(0.000362285 6.64027e-05 5.69591e-05)
(0.000377538 4.66464e-05 8.06101e-05)
(0.000439101 1.04554e-05 0.000124845)
(0.000424711 1.18574e-05 0.000187142)
(0.000450704 -3.12843e-05 0.000195404)
(0.000444601 -1.74915e-07 0.000161499)
(0.000424735 -1.11876e-06 0.000203826)
(0.00041358 2.81939e-05 8.76785e-05)
(0.000431323 -9.39699e-06 9.42631e-05)
(0.000438394 -9.48681e-06 0.000386943)
(0.000416146 5.34912e-06 0.000421896)
(0.000402406 -2.41182e-06 0.000438752)
(0.000364395 5.46912e-06 0.000421897)
(0.000395771 3.21417e-06 0.000463456)
(0.000332877 2.48019e-05 0.000431014)
(0.000464507 -5.3604e-06 0.000415649)
(0.000470643 -2.62238e-05 0.000355767)
(0.000474889 -1.57291e-05 0.000341191)
(0.000415058 -5.09861e-06 0.000355217)
(0.000394052 -2.33748e-05 0.000444783)
(0.000409625 -1.51804e-05 0.000399752)
(0.00043559 2.22106e-05 0.000516123)
(0.000504079 -3.70395e-05 0.000247792)
(0.00046433 -5.27514e-05 0.000332991)
(0.000475428 -5.3989e-05 0.000279874)
(0.000488833 -3.51786e-05 0.000354004)
(0.00052416 -8.88077e-05 0.000227717)
(0.000462574 -5.0715e-05 0.00038585)
(0.000429748 -4.44019e-05 0.000449234)
(0.000469859 -7.22389e-05 0.00043045)
(0.000473627 -1.61239e-05 0.000520451)
(0.000555401 -0.000104027 0.000408723)
(0.000513868 -0.000103593 0.000336943)
(0.000526259 -9.34979e-05 0.000273378)
(0.000510791 -7.02447e-05 0.000343335)
(0.000457865 -5.05982e-05 0.000176567)
(0.00045506 -4.13615e-05 0.000140628)
(0.000486824 -4.46429e-05 0.000181215)
(0.000334181 7.5066e-05 2.71311e-05)
(0.000343962 5.71009e-05 5.4184e-05)
(0.00029721 8.40076e-05 6.00806e-06)
(0.00032093 6.98386e-05 2.4606e-05)
(0.000364904 3.0883e-05 4.63038e-05)
(0.000409854 -2.11326e-06 6.88957e-05)
(0.000336622 4.53027e-05 4.56553e-05)
(0.000228062 8.29897e-05 -4.61555e-06)
(0.000309931 8.96671e-05 1.21381e-05)
(0.000144545 7.10885e-05 3.67689e-05)
(0.000155093 6.77603e-05 1.29537e-05)
(0.00025681 9.73669e-05 6.39685e-06)
(0.000270782 7.19656e-05 4.15151e-05)
(0.000248969 3.98804e-05 -1.77882e-05)
(0.000291636 4.84063e-05 2.5756e-05)
(0.000350502 3.77576e-05 1.78471e-05)
(0.000246791 7.68724e-05 4.87644e-06)
(0.000236048 5.48698e-05 9.9102e-06)
(0.000313749 5.4417e-05 1.62999e-05)
(0.000588222 -0.000139184 0.000192549)
(0.000571156 -0.000142331 0.000347761)
(0.00055881 -0.000139723 0.000274679)
(0.000583416 -0.000128632 0.000352163)
(0.000466105 -3.09108e-05 0.000108027)
(0.000508379 -0.000104526 0.000172464)
(0.000467905 -5.48883e-05 0.000150155)
(0.000472172 -7.62549e-05 0.00015309)
(0.000422387 -1.81498e-05 6.56316e-05)
(0.000457996 -6.01511e-05 9.99096e-05)
(0.000544468 -0.000111972 0.000136753)
(0.000588626 -0.000131457 0.000171129)
(0.00061687 -0.000199813 0.000241789)
(0.000579086 -0.000138604 0.000164071)
(0.000554173 -0.000147956 0.000194188)
(0.000386528 1.61597e-05 3.99542e-05)
(0.00039772 -8.68265e-06 3.84678e-05)
(0.000427418 -5.83835e-05 9.51943e-05)
(0.000399201 -8.5815e-06 6.86166e-05)
(0.000415376 -3.65284e-05 5.71355e-05)
(0.000328192 3.33174e-05 4.41386e-05)
(0.000375208 -5.27427e-06 4.06584e-05)
(0.000553062 -0.000103894 9.82069e-05)
(0.000583905 -0.000159579 0.000115401)
(0.000602861 -0.000159426 0.000107361)
(0.000465683 -7.04516e-05 0.000108771)
(0.00042851 -3.28446e-05 0.000121946)
(0.000477775 -7.01095e-05 8.79093e-05)
(0.000308593 5.44242e-05 0.000527342)
(0.000327164 3.56312e-05 0.000544011)
(0.000370371 -1.53071e-05 0.000581087)
(0.000369066 7.27525e-06 0.000573109)
(0.000315123 7.37958e-05 0.000532353)
(0.000357355 7.43012e-06 0.000541255)
(0.0004564 -2.70725e-05 0.000680742)
(0.00032704 2.79966e-05 0.00053478)
(0.000358413 1.51813e-05 0.000553997)
(0.000415499 2.55194e-05 0.000639732)
(0.000406914 -1.3515e-05 0.000563785)
(0.000374061 1.06654e-05 0.00052766)
(0.000418715 1.62455e-05 0.000599487)
(0.000485653 -1.88608e-05 0.000689686)
(0.000492077 1.88387e-05 0.000810033)
(0.000369347 4.86422e-05 0.000591759)
(0.00042359 4.87702e-05 0.000685295)
(0.000405933 5.06436e-05 0.000679104)
(0.000434225 1.72761e-06 0.000666138)
(0.000576153 -6.95579e-05 0.000814049)
(0.000532946 -0.000118112 0.000710403)
(0.000441608 6.15326e-05 0.000718263)
(0.000461789 -1.63588e-05 0.000679353)
(0.000414583 3.77026e-06 0.000582764)
(0.000468595 5.40112e-06 0.000666163)
(0.000457145 -4.23374e-05 0.000567871)
(0.00041469 -3.36479e-05 0.000492237)
(0.000465261 -1.53122e-05 0.000591507)
(-3.62031e-05 -2.99841e-05 0.000160874)
(0.000532048 -0.000114531 0.000632734)
(0.000503331 -8.31056e-05 0.000534107)
(0.000546662 -3.30187e-05 0.000662958)
(0.000432179 -2.65633e-05 0.000616169)
(0.000502007 -6.03425e-05 0.000633986)
(0.000569979 -4.6689e-05 0.000743755)
(0.000520876 -0.000111566 0.000521112)
(0.000514539 -0.000104048 0.000435463)
(0.000498891 -4.69028e-05 0.000541491)
(0.000635838 -4.34473e-05 0.000969118)
(0.000444923 2.50298e-06 0.000679536)
(-3.63516e-05 -2.58158e-05 0.000148698)
(0.000475102 -2.63018e-05 0.000676568)
(0.00054971 -1.6905e-05 0.000801283)
(0.000620984 -9.36491e-05 0.000870533)
(0.000636287 -0.000138124 0.000803929)
(0.000468203 -7.15279e-05 0.000579304)
(-4.1467e-05 -2.12584e-05 0.000160451)
(0.000581914 -0.000216537 0.00053308)
(0.000604578 -8.61053e-05 0.00072179)
(0.000611167 -0.00010718 0.000826504)
(0.000542363 -0.00011517 0.000677666)
(0.000602154 -7.36197e-05 0.000793744)
(0.000667324 -0.000152496 0.000770743)
(0.000600028 -0.00014185 0.000613481)
(0.00073033 -0.000254508 0.00078085)
(0.000655337 -0.000266644 0.000600665)
(0.000681517 -0.000183905 0.000757018)
(0.000480724 1.19208e-05 0.000751358)
(0.000485622 -4.38983e-05 0.000707598)
(0.00059734 -5.86453e-05 0.000861268)
(0.00063925 -6.43368e-05 0.000952591)
(0.000628054 -0.000162905 0.000866893)
(0.00057745 1.36225e-05 0.000864605)
(0.000653058 -0.000120025 0.000971327)
(0.000618512 4.93156e-05 0.000962667)
(0.000579641 -7.20095e-05 0.000852549)
(0.000570501 -0.000108871 0.00078803)
(0.000680873 -0.00014528 0.000933145)
(0.00056489 -0.000124939 0.000770132)
(0.000619921 -0.000181952 0.000740255)
(0.000700672 -0.000162762 0.00088224)
(0.000798688 -0.00025448 0.000940893)
(0.000616149 -0.000248664 0.000688583)
(0.00073553 -0.000356634 0.00062116)
(0.000743221 -0.000201888 0.000830377)
(0.000619419 -0.000182773 0.000416789)
(0.000515249 -0.000177767 0.000444225)
(0.000602954 -0.000194002 0.000451706)
(0.000585384 -9.79406e-05 0.000593674)
(0.000641602 -0.000177921 0.000593235)
(0.000643695 -0.000219596 0.000408885)
(0.000592656 -0.000207974 0.000361316)
(0.000661412 -0.000218368 0.000252844)
(0.000597117 -0.000164357 0.000346984)
(0.000690559 -0.000256073 0.00041886)
(0.000705289 -0.000301115 0.000289091)
(0.000685432 -0.000248245 0.000389761)
(0.000713296 -0.000268293 0.000594646)
(-4.41828e-05 -1.70946e-05 0.000158692)
(0.000686878 -0.000316701 0.000437729)
(0.000690409 -0.000236748 0.000583716)
(0.000813309 -0.000384623 0.000696943)
(0.00079718 -0.000414111 0.000471117)
(0.000743969 -0.000281482 0.000640716)
(-4.747e-05 -1.24108e-05 0.000160001)
(0.000775594 -0.000369627 0.000474625)
(0.000815455 -0.000382176 0.000344264)
(-3.59727e-05 -3.43312e-05 0.000183079)
(0.000708822 -0.000279038 0.000446508)
(0.000641487 -0.000217502 0.000260896)
(-4.00209e-05 -2.7051e-05 0.000186325)
(0.000651782 -0.000194465 0.000220401)
(0.000635349 -0.000209959 0.000226649)
(-3.42632e-05 -3.41619e-05 0.000168398)
(0.000707417 -0.000205671 0.000172389)
(-3.7413e-05 -1.67227e-05 0.000169749)
(-4.06991e-05 -2.86323e-05 0.000183182)
(0.000730326 -0.000327732 0.000243866)
(0.000679705 -0.000245778 0.000218141)
(-4.18522e-05 -2.72114e-05 0.000182836)
(0.000674782 -0.00025217 0.000272119)
(0.000393384 -0.000232282 0.000221101)
(-4.53842e-05 -1.97961e-05 0.000178131)
(0.000457519 -0.000281575 0.000180861)
(0.00036514 -0.000226137 0.000177751)
(-4.44082e-05 -2.04447e-05 0.000182257)
(0.000262933 -0.000166369 0.000181355)
(0.000331604 -0.000217216 0.000184533)
(-4.82968e-05 -1.30687e-05 0.000190954)
(0.000238968 -0.000160249 0.000150699)
(0.000290128 -0.00016366 0.000227855)
(-3.71427e-05 -1.96253e-05 0.000164297)
(-3.36568e-05 -1.741e-05 0.000151544)
(0.000335715 -0.000203296 0.00018004)
(-3.92807e-05 -2.37959e-05 0.000154006)
(-4.11344e-05 -1.82238e-05 0.000168276)
(0.000161222 -9.44791e-05 0.000148436)
(-3.95893e-05 -1.5851e-05 0.000152872)
(-4.35054e-05 -1.3235e-05 0.00016666)
(0.000220552 -0.000140933 0.00017066)
(-4.21037e-05 -1.26275e-05 0.000151038)
(0.000148947 -9.06275e-05 0.000130421)
(7.99128e-05 -3.39064e-05 9.90773e-05)
(0.000136015 -6.91915e-05 0.000149424)
(9.48032e-05 -3.39995e-05 0.0001182)
(6.30074e-05 -2.1e-05 8.53181e-05)
(0.00010644 -4.23278e-05 0.000126971)
(7.46288e-05 -4.1336e-05 8.09842e-05)
(0.000163673 -8.22111e-05 0.000168459)
(0.000202321 -0.000110702 0.000168812)
(0.000215272 -0.000179352 8.65395e-05)
(0.000350238 -0.000255107 0.000118608)
(0.000248228 -0.000167663 0.000141569)
(9.25041e-05 -6.8109e-05 6.71927e-05)
(0.000206192 -0.000161832 0.000103229)
(0.000148704 -0.000100807 0.000114407)
(0.00010466 -6.72157e-05 0.000100443)