/*--------------------------------*- C++ -*----------------------------------*\
  =========                 |
  \\      /  F ield         | OpenFOAM: The Open Source CFD Toolbox
   \\    /   O peration     | Website:  https://openfoam.org
    \\  /    A nd           | Version:  7
     \\/     M anipulation  |
\*---------------------------------------------------------------------------*/
FoamFile
{
    version     2.0;
    format      ascii;
    class       volVectorField;
    location    "300";
    object      wallShearStress;
}
// * * * * * * * * * * * * * * * * * * * * * * * * * * * * * * * * * * * * * //

dimensions      [0 2 -2 0 0 0 0];

internalField   uniform (0 0 0);

boundaryField
{
    wall
    {
        type            calculated;
        value           nonuniform List<vector> 
73765
(
(7.71627e-11 -2.87661e-11 -5.04388e-11)
(2.12585e-10 -1.56661e-11 1.97557e-10)
(-1.75231e-11 -1.49948e-11 2.06519e-12)
(-1.35199e-10 -3.32852e-10 2.05904e-10)
(-5.13004e-10 -1.05174e-09 4.65615e-10)
(4.287e-11 3.36401e-11 2.85194e-10)
(-4.92719e-10 -1.05141e-10 5.42376e-10)
(-1.04863e-10 -2.41354e-11 9.88598e-11)
(-4.40915e-10 -1.38795e-09 1.93222e-10)
(1.0806e-10 5.74275e-11 3.9423e-10)
(-3.23325e-10 4.00357e-11 5.62166e-10)
(1.57451e-10 2.89768e-10 2.07571e-10)
(3.1861e-11 2.8535e-10 4.26978e-10)
(-1.40521e-10 -2.15942e-10 1.72576e-10)
(-3.03468e-10 -5.01531e-10 2.53228e-10)
(-1.03243e-09 -1.20145e-09 6.64858e-10)
(-7.21851e-10 -7.28089e-10 7.31141e-10)
(-5.29972e-10 -1.11695e-09 2.39772e-10)
(-8.81489e-11 -1.3618e-09 -3.3853e-12)
(-7.28356e-11 -1.30635e-09 1.77333e-10)
(-2.75296e-10 -1.28141e-09 4.62526e-10)
(-1.63163e-10 -1.06498e-09 6.40751e-11)
(-4.42166e-10 -8.99379e-10 2.41869e-10)
(-2.28967e-10 -8.02107e-10 1.67782e-11)
(4.67021e-11 9.18141e-11 2.6666e-10)
(5.34571e-11 8.16813e-11 1.90259e-10)
(1.69564e-10 2.32176e-11 3.30563e-10)
(2.63677e-10 -1.50808e-10 -1.31123e-10)
(1.57772e-11 7.27563e-12 -6.33635e-12)
(-1.18396e-10 -8.21784e-12 1.42619e-11)
(-1.17102e-10 3.96515e-12 2.50792e-11)
(-9.95892e-11 -4.32334e-11 -9.88478e-12)
(-1.69364e-10 -9.85026e-11 1.39883e-10)
(-7.73887e-11 -1.07394e-09 -2.45259e-10)
(-3.80657e-10 -1.71452e-09 -1.8039e-11)
(8.48555e-11 -9.7041e-10 2.12989e-12)
(-1.37489e-09 -1.72216e-09 7.17498e-10)
(-4.26286e-10 -1.04667e-09 2.4606e-10)
(-1.10465e-09 -1.48013e-09 9.14195e-10)
(2.92419e-11 8.33367e-12 8.22081e-11)
(1.01057e-10 1.04773e-10 2.76864e-10)
(7.31403e-11 4.35106e-12 1.04271e-10)
(3.88011e-11 2.88888e-11 1.62744e-10)
(2.00539e-10 1.50809e-10 3.96197e-10)
(1.91645e-10 1.0211e-10 2.7562e-10)
(1.56986e-10 6.23878e-11 2.88923e-10)
(2.86401e-10 -1.28833e-10 -1.04733e-10)
(1.89887e-10 -1.02755e-10 -5.35795e-11)
(-1.81381e-10 -9.89257e-11 6.04363e-10)
(-2.3661e-10 -1.10314e-11 4.35428e-10)
(-1.08398e-10 -1.13047e-10 2.3228e-10)
(-1.46348e-10 -1.633e-11 -6.9076e-11)
(4.50152e-11 9.48134e-12 2.7042e-11)
(-1.80864e-10 -2.42999e-11 6.84281e-11)
(-4.17239e-10 -7.46033e-10 3.52698e-10)
(-2.24212e-10 -4.46469e-10 2.56284e-10)
(-2.12019e-10 -5.68139e-10 3.32568e-10)
(6.067e-11 -4.75998e-11 2.11394e-10)
(7.17268e-11 -1.26953e-10 1.70787e-10)
(2.88742e-10 -1.82267e-09 -1.10787e-10)
(2.08716e-10 -1.28787e-09 -7.80017e-11)
(1.29786e-10 -1.198e-09 -6.29415e-11)
(-7.50167e-10 -1.77469e-09 1.44919e-11)
(-2.62869e-10 -1.70561e-09 -1.03608e-10)
(-3.7806e-11 1.64476e-11 1.87399e-12)
(1.66312e-11 1.84732e-11 -2.30843e-11)
(1.47708e-11 2.04704e-11 -2.88033e-11)
(8.24807e-12 2.14288e-11 -3.25282e-11)
(-5.80316e-12 2.12559e-11 -3.69103e-11)
(1.89833e-10 -1.24358e-09 6.25981e-11)
(-6.57929e-10 -1.35078e-09 3.34363e-10)
(-4.03935e-10 -1.35467e-09 8.30904e-11)
(-1.07795e-09 -1.38169e-09 3.99152e-10)
(-1.02851e-09 -1.60409e-09 5.03663e-10)
(-7.51387e-10 -1.07264e-09 2.19532e-10)
(-5.54273e-10 -8.90905e-10 2.60676e-10)
(-6.17888e-10 -1.19174e-09 7.79676e-11)
(-8.93958e-10 -8.2284e-10 8.28892e-10)
(-1.18305e-09 -1.31055e-09 6.17617e-10)
(-6.03518e-10 -7.72782e-10 8.31654e-10)
(-4.7475e-10 -6.50667e-10 5.72947e-10)
(-1.31626e-10 -1.34958e-09 5.45005e-11)
(-2.47786e-10 -9.95375e-10 1.12054e-10)
(-4.04187e-10 -1.55549e-09 1.15394e-09)
(-3.0487e-10 -1.6644e-09 1.11333e-09)
(-4.39571e-10 -1.28049e-09 7.61529e-10)
(-3.8195e-10 -1.29394e-09 5.45373e-10)
(-1.96179e-10 -9.8894e-10 1.11212e-10)
(-1.00753e-09 -1.8367e-09 1.3096e-09)
(-5.27268e-10 -8.88538e-10 2.38099e-10)
(-5.04349e-10 -1.2187e-09 3.2079e-10)
(2.31429e-10 5.30371e-11 3.67274e-10)
(-2.21097e-10 6.99438e-11 4.01135e-10)
(-1.57036e-10 -1.61057e-09 -7.95459e-11)
(2.83842e-10 -1.67612e-09 -1.34177e-10)
(-3.70084e-10 -1.90776e-09 -4.59043e-11)
(-1.49402e-10 -2.32085e-11 6.76333e-10)
(-2.4933e-10 -3.65206e-11 4.9457e-10)
(-1.24064e-10 -3.42903e-11 2.11132e-11)
(-1.44484e-10 -1.08306e-09 7.85989e-11)
(4.23218e-11 6.90401e-11 1.52275e-10)
(-1.69471e-10 -3.90004e-11 5.11133e-10)
(-9.42764e-11 2.58738e-11 -8.17229e-11)
(5.06766e-11 -2.58134e-12 1.599e-11)
(3.4408e-10 3.84599e-10 5.40603e-10)
(6.72447e-10 3.71717e-10 6.94866e-10)
(-1.51911e-10 -6.81449e-11 -6.65367e-12)
(-1.69824e-10 -1.42992e-10 1.46628e-10)
(-1.50602e-10 -1.42332e-10 1.51978e-10)
(-9.19082e-11 -3.17206e-12 3.93945e-12)
(-1.33619e-10 -1.56685e-11 3.14127e-11)
(1.35624e-10 -5.18003e-10 -3.21193e-11)
(-1.5599e-10 -1.25808e-09 -2.37402e-10)
(-1.18515e-10 -9.851e-10 -2.197e-10)
(-2.20608e-10 -1.50974e-09 -1.91856e-10)
(4.02917e-11 -8.00088e-11 1.77938e-10)
(-2.82011e-11 1.80647e-11 -1.66592e-11)
(-2.02772e-10 -7.85363e-10 -5.1865e-12)
(-6.13909e-10 -1.61199e-09 3.2327e-10)
(-4.46036e-10 -1.34039e-09 6.96179e-10)
(2.17818e-10 -8.70987e-12 2.01974e-10)
(2.11155e-10 -5.93308e-11 1.34284e-11)
(2.21833e-10 -1.42797e-10 -8.66135e-11)
(-1.75141e-10 -6.29534e-11 1.05113e-10)
(-1.96916e-10 -1.33554e-09 -2.31463e-10)
(-1.63692e-10 -1.00378e-09 -2.15349e-10)
(-2.69003e-11 -8.16889e-10 -2.08205e-11)
(-3.86309e-10 -1.75296e-09 9.29679e-12)
(-9.20193e-10 -1.50699e-09 6.3176e-10)
(-1.11171e-10 -8.59459e-10 2.3801e-12)
(-1.95368e-10 -8.28965e-10 -3.814e-11)
(8.75312e-11 8.92515e-11 3.39427e-10)
(1.19422e-10 9.84311e-11 3.3005e-10)
(2.26257e-10 -5.58948e-12 2.7036e-10)
(1.83617e-10 -1.50637e-11 2.73591e-10)
(3.29482e-10 -1.2018e-10 -8.00104e-11)
(3.12569e-10 -1.16806e-10 -4.01358e-11)
(2.4957e-10 -8.22657e-11 -1.6012e-11)
(2.60853e-10 -1.23811e-10 -2.05942e-11)
(2.27331e-10 -8.59348e-11 -3.10202e-11)
(2.61057e-10 -1.27029e-10 -6.1598e-11)
(2.38592e-10 -8.86307e-11 -2.56237e-11)
(1.79347e-10 -5.31533e-11 -1.62875e-11)
(1.37848e-10 -5.63633e-11 -2.17801e-11)
(1.83017e-10 -8.67528e-11 -2.96788e-11)
(1.65951e-10 -8.63166e-11 -1.64088e-11)
(1.63426e-10 -8.47486e-11 -9.5419e-11)
(-1.74824e-10 -8.23615e-11 6.56592e-10)
(-2.26702e-10 -7.23767e-11 6.80617e-10)
(-1.20953e-12 -2.89204e-13 -7.04869e-13)
(1.35299e-10 1.84129e-09 8.99341e-09)
(-1.33621e-10 -1.07684e-11 -6.81461e-11)
(-1.47085e-10 -1.76592e-11 -8.93093e-11)
(7.35099e-10 4.33524e-10 5.60625e-10)
(4.24739e-10 3.58905e-10 2.97368e-10)
(9.22377e-10 3.77289e-10 4.44572e-10)
(4.5599e-10 4.33329e-10 5.03453e-10)
(7.79915e-10 4.41112e-10 6.6122e-10)
(7.5764e-10 3.98483e-10 5.42031e-10)
(-1.41497e-10 -3.71348e-11 2.74676e-11)
(-1.72163e-10 -1.32334e-10 2.91642e-11)
(-1.8934e-10 -1.33781e-10 5.9894e-11)
(-1.26215e-10 -6.1571e-11 1.68245e-11)
(-9.63344e-11 1.46994e-11 2.84563e-11)
(-1.5935e-10 -1.97849e-10 2.21531e-11)
(-1.59184e-10 -2.74093e-10 1.93285e-10)
(-1.58267e-10 -1.49968e-10 7.79562e-12)
(-1.55074e-10 -2.14789e-10 4.07796e-11)
(-1.70432e-10 -2.21831e-11 9.45564e-11)
(-1.82769e-10 -3.04086e-11 4.59673e-11)
(-1.75713e-10 -4.29184e-11 6.96252e-11)
(-1.46338e-10 9.36172e-12 9.89615e-11)
(-1.69509e-10 -1.99026e-11 6.93715e-11)
(-1.80046e-10 -6.15636e-11 2.76355e-11)
(-1.38538e-10 -1.31807e-10 1.39656e-10)
(-2.08268e-10 -1.16844e-10 7.54223e-11)
(-1.01446e-10 -1.54731e-11 2.13598e-12)
(-3.81716e-10 -7.65085e-10 4.96332e-10)
(-1.44232e-10 -2.28943e-10 -4.7903e-11)
(1.0578e-10 -3.79901e-10 1.08382e-10)
(-1.07383e-10 -7.88483e-10 -1.7237e-10)
(-8.15945e-12 -6.56e-10 1.8149e-11)
(9.80268e-11 -3.77979e-10 1.31691e-10)
(-1.44611e-10 -9.51717e-13 1.0858e-10)
(-1.68347e-10 -1.22769e-11 1.07866e-10)
(-7.71515e-11 6.16205e-14 1.20115e-10)
(-1.68808e-10 -4.23774e-11 1.20782e-10)
(-1.42645e-10 -1.01053e-10 1.24345e-10)
(-1.39453e-10 -6.01893e-11 3.0624e-11)
(-7.6167e-11 -2.02e-10 1.81868e-10)
(-2.44786e-10 -2.18449e-09 -4.01363e-10)
(-8.14481e-11 -8.03234e-10 -1.22025e-10)
(-6.68566e-11 -3.87825e-12 1.313e-10)
(1.05606e-10 -9.99698e-10 -1.05446e-10)
(-5.37769e-10 -2.44567e-09 -1.08485e-10)
(-1.84801e-10 -1.49505e-09 -1.48783e-10)
(-7.40711e-10 -1.63939e-09 6.90206e-12)
(-7.38411e-10 -1.78673e-09 1.22008e-11)
(-1.68314e-12 2.21124e-11 -3.55607e-11)
(-1.32245e-09 -1.69374e-09 3.66389e-10)
(-1.00367e-09 -1.69177e-09 7.60688e-10)
(-6.77136e-10 -1.90016e-09 3.27855e-10)
(-5.01976e-10 -1.36446e-09 6.62338e-11)
(-1.24027e-09 -1.72853e-09 1.16694e-09)
(-5.90184e-10 -7.69602e-10 3.92552e-10)
(-1.34307e-09 -1.80565e-09 6.22915e-10)
(-1.59882e-10 -1.36753e-09 2.32847e-10)
(-4.3477e-11 -8.14939e-10 5.94689e-11)
(-1.6888e-10 -1.74235e-09 3.67561e-10)
(-8.94912e-11 -1.15658e-09 2.19028e-11)
(-8.18114e-10 -1.26848e-09 3.97066e-10)
(-9.25207e-10 -1.81346e-09 5.6172e-10)
(-7.53975e-10 -1.38032e-09 4.20747e-10)
(-2.21673e-10 1.32192e-10 4.06438e-10)
(-1.21639e-11 -1.8311e-11 5.84941e-12)
(-2.46512e-10 -6.61694e-12 5.07759e-10)
(-2.15784e-10 -2.00462e-09 -4.05616e-10)
(-4.89313e-10 -1.75868e-09 2.50031e-11)
(-1.2613e-10 -4.10079e-11 4.15845e-10)
(3.00624e-10 -7.99868e-11 -2.76543e-11)
(-4.68948e-10 -1.74171e-09 4.87304e-11)
(-5.68841e-10 -1.17048e-09 4.92691e-10)
(2.94821e-10 1.30492e-10 3.13313e-10)
(2.22645e-10 -1.06182e-10 -2.41798e-11)
(2.09356e-10 -8.06383e-11 -2.84217e-11)
(1.10319e-11 3.16373e-12 -8.39381e-12)
(-9.47612e-11 -6.91465e-10 6.08574e-11)
(1.39786e-10 -7.82828e-11 -5.37405e-11)
(-3.68712e-10 -7.02044e-11 6.59066e-10)
(-8.09938e-11 2.27712e-11 -6.98735e-11)
(6.93633e-11 2.78954e-11 3.6669e-11)
(-1.68203e-10 -1.7685e-10 7.16829e-11)
(-1.63553e-10 -1.74299e-10 6.7408e-11)
(-6.12379e-11 1.97287e-12 1.27579e-10)
(8.03676e-12 4.69797e-13 -1.92677e-11)
(9.31035e-13 1.42618e-12 -1.71304e-12)
(2.68317e-10 -5.76072e-11 3.06874e-10)
(5.44993e-11 2.00499e-12 7.86321e-11)
(3.89304e-12 -5.18531e-11 -1.05426e-10)
(3.97122e-12 7.21262e-12 3.64917e-11)
(1.31394e-11 3.62331e-12 -5.44817e-12)
(5.78713e-11 -7.07692e-12 4.2136e-11)
(2.13826e-10 -6.90623e-11 2.12807e-10)
(1.94734e-10 -3.77008e-11 3.15241e-10)
(-1.05287e-10 2.58911e-11 1.18009e-10)
(1.85419e-11 3.01467e-12 -3.8836e-11)
(-2.60769e-11 -1.1328e-11 -1.0242e-11)
(-1.5546e-11 -1.20397e-11 -1.73742e-12)
(-4.44237e-11 -1.62012e-10 3.49298e-10)
(3.06001e-10 -1.17509e-10 -9.48631e-11)
(1.57617e-10 -7.51326e-11 -3.09279e-11)
(-1.90145e-10 -6.32414e-11 3.83088e-10)
(1.26969e-11 1.67209e-12 -7.89781e-12)
(-2.11097e-11 -5.962e-12 -8.9353e-12)
(-4.44157e-11 -4.48422e-12 -2.60135e-11)
(6.08696e-11 5.59854e-11 1.18261e-10)
(-6.24745e-11 -3.05894e-10 2.30636e-10)
(6.05066e-11 9.48628e-11 1.47487e-10)
(-2.0243e-11 -4.23589e-11 1.18374e-10)
(-9.71181e-10 -2.32693e-09 6.13833e-11)
(4.56601e-11 2.42541e-11 7.1928e-11)
(7.28955e-11 1.04383e-10 2.90724e-10)
(1.68212e-11 9.75074e-11 2.86553e-10)
(6.79512e-11 -3.01265e-11 -5.05748e-11)
(1.6942e-11 -2.45145e-12 -1.03551e-11)
(5.26375e-12 4.78274e-13 -4.81309e-12)
(1.40515e-12 1.29017e-12 -2.09606e-12)
(-1.70717e-10 1.49955e-13 4.68791e-10)
(-1.54001e-10 3.74029e-11 4.42538e-10)
(-1.62102e-10 6.61628e-11 4.62561e-10)
(-2.42614e-12 4.83683e-13 1.58882e-12)
(-6.4343e-12 2.33835e-12 1.16302e-12)
(-8.75063e-12 2.37599e-12 9.10788e-13)
(-8.23664e-12 2.41143e-12 1.01483e-12)
(-1.19863e-10 9.64952e-12 3.69816e-10)
(-3.12513e-12 1.19393e-12 6.45615e-13)
(5.61838e-11 -6.99932e-12 4.08995e-11)
(-1.45211e-10 3.69475e-11 4.07721e-10)
(6.29932e-11 -8.51132e-12 4.51716e-11)
(6.89134e-11 -1.15285e-11 5.06408e-11)
(-4.89597e-10 -9.86969e-12 -1.08253e-10)
(-5.60477e-11 2.69042e-11 2.30982e-10)
(-5.41345e-11 2.54075e-11 2.10002e-10)
(-6.07583e-12 -4.89709e-13 3.50058e-11)
(-1.21808e-10 -1.67752e-11 -3.96816e-11)
(-1.32924e-10 -2.89535e-12 -5.73694e-11)
(1.04392e-10 -1.1353e-11 -2.7218e-11)
(-8.57156e-11 2.12745e-11 -7.36601e-11)
(-2.50094e-10 1.93688e-11 2.44229e-10)
(-4.51712e-11 -5.53404e-12 -2.27916e-11)
(1.81678e-11 -6.96127e-12 1.63531e-11)
(-2.81536e-11 -1.40142e-11 -1.31496e-11)
(-1.73666e-11 -1.39518e-11 -4.73137e-12)
(5.9072e-11 6.23657e-11 1.15595e-10)
(5.81877e-11 7.38346e-11 1.2214e-10)
(-3.20241e-11 -1.31034e-10 1.87669e-10)
(-9.18067e-11 -1.62867e-10 2.16829e-10)
(-2.87513e-11 -9.95681e-11 2.69287e-11)
(-6.25446e-11 -3.45984e-10 3.8288e-11)
(-4.72551e-11 -1.37651e-10 1.50408e-11)
(-1.326e-10 -5.82274e-10 2.59383e-10)
(-1.73963e-11 -8.88701e-12 -5.34753e-12)
(-1.22953e-11 -8.85576e-12 -3.10102e-12)
(4.66116e-11 4.32002e-11 1.07636e-10)
(4.24754e-11 6.56997e-11 1.48477e-10)
(4.46307e-11 9.48555e-12 8.16106e-11)
(1.05587e-10 -2.25232e-11 4.16241e-10)
(8.15471e-11 8.12205e-11 3.39395e-10)
(5.60126e-11 8.31866e-11 2.20028e-10)
(3.45808e-11 4.0185e-11 1.34267e-10)
(4.78126e-11 2.89353e-11 8.05195e-11)
(4.26525e-11 7.54424e-11 1.36185e-10)
(2.15455e-10 6.44359e-11 3.41065e-10)
(1.48469e-10 9.16867e-11 3.68412e-10)
(3.67675e-11 9.695e-11 2.37766e-10)
(4.58542e-11 5.1234e-11 9.67718e-11)
(2.07839e-10 8.9626e-11 3.54205e-10)
(1.72358e-11 1.05863e-10 1.99077e-10)
(4.424e-11 -4.98732e-13 7.40325e-11)
(1.754e-10 -4.7733e-11 2.9269e-10)
(1.92563e-10 7.86295e-11 3.28105e-10)
(9.67988e-11 7.3762e-11 3.08647e-10)
(3.82108e-11 -2.12697e-12 1.02422e-10)
(4.04228e-11 8.28804e-12 5.91937e-11)
(4.30782e-11 2.3562e-11 6.69277e-11)
(1.91817e-10 7.42107e-11 2.93425e-10)
(7.51776e-12 1.07888e-10 1.6527e-10)
(3.48748e-11 -1.98955e-12 1.13916e-10)
(2.11867e-10 -7.13033e-12 3.66173e-10)
(2.93976e-11 8.93109e-11 2.69981e-10)
(3.05296e-11 -1.06245e-13 1.13947e-10)
(3.52132e-11 -3.74702e-12 6.43683e-11)
(1.99533e-10 -3.97326e-11 3.13717e-10)
(4.23508e-11 1.66862e-11 6.3388e-11)
(1.60061e-10 2.41573e-11 2.2453e-10)
(1.37281e-11 9.80599e-11 1.39193e-10)
(4.59238e-11 6.33952e-11 3.11462e-10)
(-1.90125e-11 7.41262e-11 2.50591e-10)
(-3.32404e-11 1.01204e-10 2.05218e-10)
(2.64724e-11 9.49529e-11 2.75283e-10)
(2.93293e-11 1.73108e-12 1.26373e-10)
(4.89067e-11 3.62602e-11 8.65208e-11)
(2.05674e-10 7.37484e-11 2.7715e-10)
(4.87963e-11 4.8003e-11 3.0713e-10)
(-2.12045e-11 9.45319e-11 1.59749e-10)
(-6.02485e-12 7.49854e-11 2.18002e-10)
(2.46114e-11 5.49061e-12 1.27251e-10)
(1.06297e-10 8.87427e-11 3.27218e-10)
(3.76969e-11 -4.0744e-12 6.63525e-11)
(2.15414e-10 -2.60284e-12 3.77988e-10)
(2.27764e-10 -5.51674e-11 3.63082e-10)
(1.87003e-10 2.82301e-11 2.63709e-10)
(5.6849e-11 6.11991e-11 1.21322e-10)
(2.31485e-10 7.68437e-11 3.00059e-10)
(5.78561e-11 2.72296e-11 3.10397e-10)
(-1.36842e-11 7.92757e-11 2.14477e-10)
(2.94748e-11 1.00303e-11 1.38481e-10)
(3.763e-11 3.53209e-12 1.16336e-10)
(4.85804e-11 -5.64997e-12 7.44014e-11)
(7.26315e-11 2.66014e-11 1.11897e-10)
(8.08807e-11 3.59734e-11 3.95089e-10)
(-8.96193e-12 8.0898e-11 1.25965e-10)
(-1.90589e-11 5.25101e-11 1.6893e-10)
(-5.45604e-12 3.41397e-11 1.5937e-10)
(1.31381e-11 2.29798e-11 1.4939e-10)
(3.02916e-11 1.48603e-11 1.42211e-10)
(4.4372e-11 8.27412e-12 1.27817e-10)
(2.85675e-10 -4.8054e-11 7.71819e-10)
(1.00305e-10 5.67063e-11 1.69177e-10)
(8.79538e-11 -1.8831e-10 -1.40742e-10)
(2.01044e-11 7.59567e-11 1.29717e-10)
(-4.69291e-12 3.45145e-11 1.45985e-10)
(1.47746e-11 2.47488e-11 1.4476e-10)
(3.73809e-11 1.75144e-11 1.40066e-10)
(5.05334e-11 1.24123e-11 1.34778e-10)
(-5.07746e-12 1.19382e-10 2.06193e-10)
(6.49767e-11 -1.99197e-12 1.07671e-10)
(9.98357e-11 3.52487e-12 1.35691e-10)
(4.82875e-10 -1.8856e-10 -1.15237e-10)
(2.09296e-10 6.17874e-11 2.40365e-10)
(4.3686e-10 -1.78557e-10 -8.73042e-11)
(3.91737e-10 -1.63618e-10 -8.44526e-11)
(3.62217e-10 -1.7449e-10 -1.3752e-10)
(-3.29564e-11 1.83109e-12 9.61601e-12)
(-2.10024e-11 1.75272e-11 4.29425e-11)
(2.08311e-11 2.44995e-11 1.27106e-10)
(4.18359e-11 1.94624e-11 1.34347e-10)
(3.57121e-10 -1.63102e-10 -7.42755e-11)
(8.56949e-11 5.76699e-11 1.50417e-10)
(1.967e-10 -1.80883e-10 -2.00372e-10)
(1.25723e-10 -1.60697e-10 -2.14814e-10)
(6.50694e-11 -1.31715e-10 -2.02334e-10)
(2.07532e-11 -8.27693e-11 -1.51575e-10)
(5.37725e-13 -4.05858e-11 -9.1069e-11)
(-6.2126e-12 -1.11882e-11 -2.84896e-11)
(-4.81703e-12 4.68168e-12 2.11941e-11)
(7.17625e-12 1.86298e-11 4.75117e-11)
(-2.30607e-11 5.60423e-11 7.58368e-11)
(1.12955e-10 5.29657e-13 1.41603e-10)
(2.11262e-10 6.56986e-11 2.21338e-10)
(1.31007e-10 4.48324e-11 1.68549e-10)
(9.37449e-12 4.90567e-12 2.5331e-11)
(1.61969e-10 1.9898e-11 1.50731e-10)
(3.21657e-10 -5.73851e-11 -2.88758e-10)
(3.39181e-10 -8.20332e-11 -1.52531e-10)
(2.01599e-10 4.88803e-11 2.10719e-10)
(4.68725e-11 5.43887e-12 6.34812e-11)
(1.77245e-10 -9.10677e-11 -8.4407e-11)
(2.89005e-11 -5.40777e-12 1.61956e-11)
(1.32002e-10 1.08256e-11 1.32968e-10)
(1.24404e-10 -3.53008e-11 -2.36217e-10)
(1.79821e-10 3.87537e-11 1.64325e-10)
(2.04489e-10 4.771e-11 1.9414e-10)
(7.3808e-11 4.97492e-12 8.32932e-11)
(1.36388e-10 -7.60024e-11 -1.09356e-10)
(1.17421e-10 -6.88858e-11 -1.22708e-10)
(9.33106e-11 -5.88869e-11 -1.30353e-10)
(1.47934e-10 1.74648e-11 1.40606e-10)
(1.09319e-10 -3.70058e-11 -1.75922e-10)
(1.92634e-10 -2.9085e-11 -1.48077e-10)
(9.80452e-11 2.9338e-12 9.80914e-11)
(7.47232e-11 -3.68553e-11 -9.92576e-11)
(6.04311e-11 -2.67469e-11 -9.43714e-11)
(7.08857e-11 -1.5297e-11 2.19963e-11)
(8.03642e-11 -3.08972e-11 -1.21861e-10)
(1.67433e-10 2.76404e-11 1.45904e-10)
(1.43245e-10 -3.03872e-11 -7.88777e-11)
(1.84208e-10 8.47265e-12 1.71276e-10)
(1.00366e-10 7.40031e-14 9.4259e-11)
(1.23108e-10 1.74e-12 1.13659e-10)
(5.18114e-11 -1.43059e-11 -7.3041e-11)
(9.14208e-11 -1.02944e-11 5.22676e-11)
(1.66908e-10 2.14283e-11 1.36019e-10)
(4.7524e-11 -3.32099e-11 -6.75011e-11)
(1.02936e-10 -2.86422e-11 -6.61419e-11)
(2.08556e-10 4.12709e-12 1.85045e-10)
(4.06889e-11 -5.89757e-12 -1.44362e-12)
(7.23794e-11 3.026e-12 3.06506e-11)
(1.13409e-10 -4.20209e-13 1.00837e-10)
(4.16679e-11 -5.67177e-12 -5.3018e-11)
(1.10463e-10 -9.44333e-12 6.88755e-11)
(1.8306e-10 2.13197e-11 1.51211e-10)
(3.81489e-11 -2.42621e-11 -2.99668e-11)
(6.7161e-11 -2.0359e-11 -4.38603e-12)
(7.6395e-11 -2.8639e-11 -5.58101e-11)
(6.43917e-11 -2.71844e-11 -6.03548e-11)
(2.36481e-10 4.13404e-11 2.20853e-10)
(2.20048e-10 1.2037e-12 1.90541e-10)
(2.35493e-11 -1.05251e-12 -1.23229e-11)
(6.01219e-11 -1.04106e-11 1.12902e-11)
(7.12195e-11 2.6957e-12 3.50323e-11)
(7.33155e-11 -3.06582e-13 4.65242e-11)
(1.24092e-10 -2.17343e-12 1.05714e-10)
(1.2313e-10 -9.40575e-12 7.9208e-11)
(8.19779e-11 -2.27864e-11 3.28769e-11)
(4.56512e-11 -2.39704e-11 -4.15873e-11)
(3.8735e-11 -2.37123e-11 -4.0438e-11)
(2.04766e-10 4.34898e-11 1.77574e-10)
(2.50394e-10 4.52973e-11 2.29685e-10)
(2.38254e-10 -1.93397e-12 2.02878e-10)
(1.73943e-11 1.53696e-12 -1.46224e-11)
(2.25502e-11 -3.85799e-12 -2.66726e-12)
(7.10146e-11 -6.30768e-13 4.68327e-11)
(7.82263e-11 -1.3138e-12 5.76837e-11)
(1.40148e-10 -3.5525e-12 1.12385e-10)
(2.63098e-11 9.73948e-13 -3.05434e-11)
(1.38833e-10 -1.18576e-11 8.58954e-11)
(2.09318e-10 2.18561e-11 1.55471e-10)
(8.38681e-11 -1.50851e-11 4.54133e-11)
(2.016e-10 3.53146e-11 1.611e-10)
(1.51294e-11 -1.56589e-11 -1.96445e-11)
(1.38414e-11 -1.17829e-11 -1.35065e-11)
(2.20686e-10 4.53716e-11 1.89448e-10)
(-2.64717e-10 -7.63633e-11 5.12194e-10)
(-2.57396e-10 -7.86876e-11 4.77753e-10)
(2.65976e-10 1.73103e-11 2.37916e-10)
(9.90407e-12 3.22086e-12 -1.20996e-11)
(7.45773e-11 -2.36846e-12 5.74084e-11)
(8.86217e-11 -2.00796e-12 6.95763e-11)
(9.96633e-11 -1.95145e-12 7.77922e-11)
(1.59391e-10 -6.03855e-12 1.2296e-10)
(1.60475e-11 1.65906e-12 -1.93557e-11)
(1.47435e-10 -1.34539e-11 8.87724e-11)
(2.08187e-10 2.24579e-11 1.51435e-10)
(2.26521e-10 4.19736e-11 1.82941e-10)
(-2.48668e-10 -7.39929e-11 4.88334e-10)
(2.49525e-10 4.98725e-11 2.20264e-10)
(2.80915e-10 1.87299e-11 2.4881e-10)
(-2.22889e-10 -4.63238e-11 3.9055e-10)
(2.81703e-12 3.66444e-12 -6.92542e-12)
(8.33514e-11 -3.04654e-12 6.64507e-11)
(9.44382e-11 -2.31688e-12 7.40343e-11)
(1.15435e-10 -1.15003e-12 8.89399e-11)
(1.59972e-10 -3.77455e-12 1.17211e-10)
(1.75888e-10 -7.01725e-12 1.28439e-10)
(-2.10879e-10 -8.38547e-12 4.62057e-10)
(8.29047e-12 1.8509e-12 -8.04989e-12)
(1.57272e-10 -1.59546e-11 9.14551e-11)
(2.36393e-10 2.94474e-11 1.65043e-10)
(-1.59611e-10 -6.48639e-11 4.23392e-10)
(-2.14707e-12 -3.0255e-12 -2.91164e-12)
(-2.51396e-12 -8.98345e-13 -7.38953e-13)
(1.08156e-12 2.51947e-12 2.73887e-12)
(2.05326e-11 5.88797e-12 1.04441e-11)
(2.49552e-10 5.01463e-11 2.22218e-10)
(-2.2301e-10 -8.32359e-11 4.37348e-10)
(-2.29553e-10 -7.55648e-11 4.14807e-10)
(2.83186e-10 1.40308e-11 2.46186e-10)
(-9.89121e-13 -1.3615e-12 2.07958e-12)
(5.46272e-11 -2.94041e-12 3.69183e-11)
(-1.95547e-10 -1.47594e-11 3.59096e-10)
(-1.61483e-12 3.94664e-12 -3.22411e-12)
(1.06468e-10 -1.82949e-12 8.27192e-11)
(1.21285e-10 -7.49011e-13 9.03778e-11)
(1.64065e-10 -4.34866e-12 1.14908e-10)
(1.81338e-10 -9.04701e-12 1.28188e-10)
(-2.09531e-10 8.94528e-12 4.51601e-10)
(-2.0957e-10 9.80124e-12 4.69083e-10)
(-2.32662e-10 1.73506e-11 5.13049e-10)
(-2.71333e-10 -2.07097e-12 4.73126e-10)
(1.69953e-10 -1.92479e-11 9.17022e-11)
(2.37577e-10 2.61215e-11 1.64039e-10)
(-1.81954e-10 -6.76238e-11 4.12877e-10)
(-1.46466e-10 -3.40877e-11 5.4065e-10)
(6.69032e-13 -2.20283e-12 -1.87214e-12)
(-2.69184e-12 -1.12094e-12 -7.14073e-13)
(-5.46021e-12 -2.48909e-13 -5.33172e-14)
(-7.50366e-12 5.96161e-13 3.92305e-13)
(-8.30575e-12 1.51438e-12 7.33835e-13)
(-6.93029e-12 2.40591e-12 1.05439e-12)
(3.07428e-12 3.67725e-12 1.94633e-12)
(-3.36767e-12 2.41939e-13 4.64307e-13)
(3.8448e-11 -7.3342e-12 1.16849e-11)
(2.96101e-10 1.31748e-11 2.57914e-10)
(5.78441e-11 -4.86e-12 4.43946e-11)
(1.14658e-10 -1.66964e-12 8.68341e-11)
(1.3385e-10 5.36687e-13 9.64354e-11)
(1.73678e-10 -5.64633e-12 1.20343e-10)
(1.96052e-10 -9.66072e-12 1.34026e-10)
(-1.9531e-10 1.46711e-11 4.34823e-10)
(-2.0653e-10 2.43582e-11 4.81674e-10)
(-2.41459e-10 2.82716e-11 5.4261e-10)
(-2.84216e-10 2.66405e-11 5.49226e-10)
(-2.9138e-10 1.8667e-11 6.64709e-10)
(-3.3392e-10 -4.39259e-11 5.32022e-10)
(-1.2655e-10 -2.79705e-11 5.05828e-10)
(-2.11705e-10 -6.44095e-11 3.99636e-10)
(-2.08935e-10 3.94883e-11 6.05026e-10)
(-1.99389e-10 -5.8174e-11 3.38155e-10)
(2.99612e-10 1.047e-11 2.58062e-10)
(-2.35699e-12 1.68122e-12 3.98829e-13)
(6.3145e-11 -6.56099e-12 5.08833e-11)
(-1.7499e-10 -1.17819e-11 3.22102e-10)
(-2.37462e-10 8.70337e-11 5.32568e-10)
(1.25907e-10 5.59665e-13 8.9784e-11)
(1.42023e-10 9.73521e-13 9.98976e-11)
(1.83212e-10 -6.10613e-12 1.22766e-10)
(2.0862e-10 -1.34865e-11 1.37043e-10)
(-1.81375e-10 1.32546e-11 3.88865e-10)
(-1.91353e-10 2.43725e-11 4.42598e-10)
(-2.46741e-10 4.42929e-11 5.54818e-10)
(-2.55274e-10 3.9469e-11 5.79683e-10)
(-2.23724e-10 2.65889e-11 5.77589e-10)
(-1.50197e-10 -5.80045e-11 3.43487e-10)
(-1.09682e-10 -1.20601e-11 4.5699e-10)
(-1.5116e-10 3.91552e-11 5.13742e-10)
(-1.95513e-10 -6.85613e-11 3.63226e-10)
(3.94327e-11 -3.50832e-12 2.82758e-11)
(4.66201e-11 -5.28207e-12 3.41907e-11)
(3.09557e-10 6.87655e-12 2.64582e-10)
(7.65407e-11 -6.08065e-12 6.26516e-11)
(1.38117e-10 9.46149e-13 9.63005e-11)
(1.56567e-10 3.15367e-12 1.03431e-10)
(1.98661e-10 -8.5463e-12 1.2495e-10)
(2.28228e-10 -1.57216e-11 1.41551e-10)
(-1.69708e-10 1.78473e-11 3.92125e-10)
(-2.26007e-10 4.48146e-11 5.36638e-10)
(-2.21e-10 4.75421e-11 5.43832e-10)
(1.7595e-10 -2.90899e-11 8.54268e-11)
(-1.65873e-10 -5.018e-11 3.28458e-10)
(-1.0049e-10 1.45988e-12 4.29295e-10)
(-1.81101e-10 -5.97955e-11 3.41342e-10)
(5.29648e-11 -6.37855e-12 3.90863e-11)
(3.04222e-10 3.94844e-12 2.56869e-10)
(8.30622e-11 -7.27733e-12 6.61726e-11)
(-1.48796e-10 -9.23483e-12 2.78075e-10)
(1.48721e-10 4.08113e-12 9.94439e-11)
(1.63772e-10 4.44152e-12 1.03923e-10)
(1.77952e-10 3.41493e-12 1.07811e-10)
(2.12219e-10 -9.51547e-12 1.23724e-10)
(2.39966e-10 -2.00257e-11 1.37773e-10)
(-1.57958e-10 1.5568e-11 3.44145e-10)
(-1.98772e-10 4.79885e-11 5.05905e-10)
(-2.0545e-10 5.08973e-11 5.26097e-10)
(1.83641e-10 -3.35239e-11 8.47636e-11)
(-1.72823e-10 -4.43424e-11 3.15321e-10)
(-9.05736e-11 1.54481e-11 4.12821e-10)
(-1.82004e-10 -5.05008e-11 3.23903e-10)
(-1.757e-10 4.85179e-11 5.24095e-10)
(2.96391e-10 -1.08782e-12 2.5028e-10)
(-1.52205e-10 -2.84692e-11 2.49164e-10)
(-1.90428e-10 3.33424e-11 5.2528e-10)
(8.98638e-11 -5.74517e-12 7.12391e-11)
(-1.7999e-10 3.32899e-11 4.94122e-10)
(1.78685e-10 6.65712e-12 1.07404e-10)
(1.91239e-10 5.60865e-12 1.10031e-10)
(2.2989e-10 -1.1865e-11 1.25934e-10)
(2.61638e-10 -2.18604e-11 1.43888e-10)
(-1.44018e-10 2.32678e-11 3.40798e-10)
(-1.81032e-10 4.52611e-11 4.70991e-10)
(-1.92468e-10 4.78153e-11 5.01592e-10)
(1.90072e-10 -3.70294e-11 8.27757e-11)
(2.87004e-10 4.50714e-11 1.74066e-10)
(8.45632e-11 -1.2024e-11 5.7196e-11)
(-1.16104e-10 6.46882e-11 4.62227e-10)
(6.40071e-11 -7.89805e-12 4.57138e-11)
(-1.80281e-10 6.071e-11 5.14853e-10)
(6.8851e-11 -8.06612e-12 5.43556e-11)
(2.70667e-10 -3.89511e-12 2.31232e-10)
(3.02703e-10 -3.63474e-11 2.13582e-10)
(1.83987e-10 9.87185e-12 1.03657e-10)
(2.02359e-10 6.64307e-12 1.09416e-10)
(2.45493e-10 -1.18172e-11 1.23974e-10)
(2.65959e-10 -2.42739e-11 1.36082e-10)
(-1.32712e-10 1.80587e-11 2.98089e-10)
(-1.81214e-10 4.93341e-11 4.75309e-10)
(1.98471e-10 -4.22715e-11 8.24299e-11)
(2.72327e-10 4.71983e-11 1.59649e-10)
(-8.09188e-11 -3.43235e-11 2.3635e-10)
(1.32359e-10 -2.67424e-11 7.19594e-11)
(-1.52098e-10 -3.30391e-11 2.59619e-10)
(8.77265e-11 -1.36221e-11 5.82012e-11)
(6.93448e-11 -9.41019e-12 4.93901e-11)
(6.42285e-11 -9.89143e-12 4.79614e-11)
(-1.41193e-10 -3.95597e-11 2.33652e-10)
(-1.34519e-10 -2.2182e-11 2.1839e-10)
(1.16512e-10 -2.39021e-12 8.6024e-11)
(2.79725e-10 -3.66069e-11 1.99562e-10)
(2.00139e-10 1.29208e-11 1.08221e-10)
(2.13074e-10 1.08325e-11 1.07638e-10)
(2.53205e-10 -1.32197e-11 1.18875e-10)
(2.75068e-10 -2.36053e-11 1.36199e-10)
(-1.26148e-10 2.12273e-11 2.94145e-10)
(2.40183e-10 5.10164e-11 1.3422e-10)
(-9.45985e-11 -3.24709e-11 2.10798e-10)
(-8.13636e-11 -3.13419e-11 2.11371e-10)
(-7.41101e-11 -2.7915e-11 2.07442e-10)
(1.34892e-10 -2.97953e-11 7.07102e-11)
(-1.54005e-10 -2.67614e-11 2.45065e-10)
(-5.60355e-11 2.88124e-11 3.0903e-10)
(9.46646e-11 -1.77376e-11 6.15945e-11)
(1.75418e-10 5.07548e-11 1.63555e-10)
(-1.52454e-10 -3.95948e-11 2.60612e-10)
(-1.4349e-10 -4.43491e-11 2.43053e-10)
(-1.26709e-10 1.16925e-10 4.71752e-10)
(1.40841e-10 3.87052e-12 1.56443e-10)
(-1.83636e-10 6.92792e-11 4.69803e-10)
(1.25746e-10 1.51119e-12 9.11659e-11)
(2.22739e-10 -3.26263e-11 1.70545e-10)
(2.04218e-10 1.63861e-11 1.04144e-10)
(2.25692e-10 1.28956e-11 1.06671e-10)
(2.65793e-10 -1.31359e-11 1.17034e-10)
(2.79962e-10 -2.54632e-11 1.33443e-10)
(-1.17998e-10 2.05272e-11 2.685e-10)
(2.64813e-10 -1.42756e-11 9.16355e-11)
(2.50741e-10 2.58195e-12 9.85957e-11)
(2.06187e-10 4.94801e-11 1.27361e-10)
(-9.70265e-11 -2.56973e-11 1.83883e-10)
(-7.54771e-11 -2.7849e-11 1.81074e-10)
(-7.39439e-11 -2.55986e-11 1.78714e-10)
(-6.80001e-11 -2.25467e-11 1.77737e-10)
(1.38294e-10 -3.39283e-11 6.97492e-11)
(-1.54391e-10 -1.86547e-11 2.29962e-10)
(1.95145e-10 4.78013e-11 2.02028e-10)
(-5.58376e-11 9.94796e-11 3.74016e-10)
(-1.28991e-10 -3.3511e-11 2.08927e-10)
(-1.6419e-10 1.10667e-10 4.7836e-10)
(9.40148e-11 -9.90421e-12 7.76351e-11)
(1.7896e-10 3.0975e-12 2.133e-10)
(-1.26876e-10 -2.5131e-11 2.00542e-10)
(1.3054e-10 6.65799e-13 9.41436e-11)
(1.89675e-10 -2.2615e-11 1.87704e-10)
(-1.82889e-10 5.78655e-11 4.55954e-10)
(2.20501e-10 2.21339e-11 1.07851e-10)
(2.36564e-10 1.75251e-11 1.05528e-10)
(2.74644e-10 -1.14485e-11 1.18126e-10)
(2.77522e-10 -2.34799e-11 1.36925e-10)
(-1.4349e-10 4.05533e-11 4.2268e-10)
(2.66443e-10 -1.67251e-11 9.26806e-11)
(2.45888e-10 1.40169e-12 9.70343e-11)
(1.98196e-10 4.06557e-11 1.45297e-10)
(-1.09767e-10 -1.62257e-11 1.6159e-10)
(-7.7914e-11 -2.27326e-11 1.55503e-10)
(-6.19537e-11 -1.72018e-11 1.51535e-10)
(1.47112e-10 -3.80409e-11 7.51426e-11)
(1.99498e-10 3.83181e-11 2.29933e-10)
(8.14278e-11 -1.95785e-11 6.71732e-11)
(1.90669e-10 2.59407e-11 2.30453e-10)
(2.30894e-10 2.49226e-11 1.09038e-10)
(2.54226e-10 2.17629e-11 1.16896e-10)
(2.62883e-10 -1.93509e-11 1.54599e-10)
(-9.9663e-11 1.88522e-11 2.30173e-10)
(-1.3322e-10 3.63417e-11 4.25538e-10)
(2.67405e-10 -1.54456e-11 1.00049e-10)
(2.39718e-10 2.06995e-12 1.14901e-10)
(1.97575e-10 3.36959e-11 1.57045e-10)
(-1.15458e-10 -6.53467e-12 1.41021e-10)
(-5.30117e-11 -1.34326e-11 1.29771e-10)
(1.51589e-10 -4.32702e-11 7.51305e-11)
(1.96419e-10 4.20975e-11 1.8642e-10)
(-4.88535e-12 4.49245e-11 1.90437e-10)
(-1.53435e-10 -1.78487e-11 2.24516e-10)
(9.08874e-11 -2.78747e-11 6.6442e-11)
(-1.47331e-10 -2.39396e-11 2.28989e-10)
(-5.29767e-11 2.28738e-10 4.13322e-10)
(1.64372e-10 1.57336e-11 1.07137e-10)
(2.51673e-10 2.9275e-11 1.28719e-10)
(2.77239e-10 2.34867e-11 1.46829e-10)
(2.435e-10 -8.72355e-12 1.98027e-10)
(-1.27388e-10 3.02476e-11 4.30331e-10)
(2.63168e-10 -2.07107e-11 1.25957e-10)
(2.20113e-10 -6.89699e-12 1.24354e-10)
(1.94969e-10 7.40627e-12 1.3167e-10)
(1.82329e-10 3.112e-11 1.51652e-10)
(-1.31644e-10 5.27573e-12 1.22902e-10)
(-2.83658e-11 -2.46128e-12 1.20566e-10)
(1.89572e-10 4.22107e-11 1.80925e-10)
(-1.53803e-10 5.47264e-12 1.73998e-10)
(8.71038e-11 1.48504e-10 2.29064e-10)
(-1.58504e-10 -2.1955e-11 2.36445e-10)
(-1.51669e-10 2.8658e-10 5.40969e-10)