/*--------------------------------*- C++ -*----------------------------------*\
  =========                 |
  \\      /  F ield         | OpenFOAM: The Open Source CFD Toolbox
   \\    /   O peration     | Website:  https://openfoam.org
    \\  /    A nd           | Version:  7
     \\/     M anipulation  |
\*---------------------------------------------------------------------------*/
FoamFile
{
    version     2.0;
    format      ascii;
    class       volScalarField;
    location    "0.6";
    object      p;
}
// * * * * * * * * * * * * * * * * * * * * * * * * * * * * * * * * * * * * * //

dimensions      [0 2 -2 0 0 0 0];

internalField   nonuniform List<scalar> 
277122
(
2.74343
2.74359
2.74373
2.74502
2.74469
2.74358
2.74375
2.74288
2.7428
2.74211
2.74216
2.74227
2.74221
2.74268
2.74278
2.74293
2.74284
2.74289
2.74297
2.74386
2.74368
2.74444
2.74465
2.74622
2.7457
2.74707
2.74817
2.75072
2.74962
2.7517
2.75511
2.75492
2.75434
2.75424
2.79269
2.78218
2.77138
2.76365
2.75358
2.75611
2.75304
2.75461
2.754
2.75311
2.7527
2.79207
2.78301
2.77313
2.76557
2.766
2.77345
2.78292
2.79148
2.75322
2.7535
2.75414
2.75451
2.75259
2.75626
2.75101
2.74943
2.7502
2.75131
2.74794
2.74683
2.74624
2.74857
2.74991
2.75116
2.75031
2.74918
2.74846
2.74881
2.74952
2.75065
2.75145
2.74986
2.74669
2.74852
2.74847
2.74818
2.74787
2.74528
2.74567
2.74664
2.74801
2.74826
2.74791
2.74836
2.74732
2.74652
2.7461
2.75198
2.75222
2.75298
2.75359
2.76353
2.77096
2.78066
2.78976
2.78767
2.77899
2.76975
2.76269
2.75407
2.75114
2.75364
2.75327
2.7526
2.75235
2.74841
2.74973
2.74846
2.74776
2.7454
2.74588
2.74618
2.74573
2.74488
2.74452
2.74382
2.74289
2.74217
2.7416
2.74083
2.74052
2.74025
2.74021
2.7402
2.7402
2.74173
2.74178
2.74186
2.74193
2.74195
2.73925
2.73858
2.73857
2.73863
2.73866
2.74002
2.74003
2.74007
2.74019
2.74056
2.74188
2.74153
2.74144
2.7414
2.74138
2.74301
2.74311
2.74326
2.74337
2.74324
2.74092
2.74043
2.74037
2.74041
2.74044
2.74055
2.74052
2.74053
2.74077
2.74154
2.74215
2.74139
2.74108
2.74101
2.741
2.74211
2.74224
2.74252
2.74304
2.74327
2.74463
2.74546
2.745
2.74459
2.74431
2.7451
2.7455
2.74595
2.74625
2.74496
2.74545
2.747
2.74676
2.74641
2.74612
2.746
2.74633
2.74666
2.74676
2.74527
2.74488
2.74542
2.74502
2.74461
2.74431
2.74645
2.74689
2.74755
2.74829
2.74659
2.74738
2.75055
2.75008
2.74945
2.74898
2.74663
2.74734
2.74884
2.75035
2.74722
2.74977
2.7557
2.7558
2.75551
2.75573
2.79296
2.7818
2.77089
2.76314
2.75411
2.74958
2.74809
2.74823
2.74908
2.74748
2.74666
2.7456
2.74608
2.74658
2.74585
2.74538
2.74578
2.74497
2.74465
2.7469
2.7476
2.75028
2.74864
2.75174
2.75334
2.75273
2.75184
2.75128
2.79151
2.78298
2.77357
2.76612
2.75597
2.75634
2.75081
2.75129
2.75045
2.74963
2.7492
2.7891
2.78233
2.77431
2.76727
2.76574
2.77278
2.78109
2.7884
2.74952
2.74981
2.75066
2.75149
2.75
2.75586
2.75098
2.74849
2.74906
2.75099
2.74687
2.74718
2.74791
2.74867
2.74787
2.74707
2.7466
2.74466
2.74516
2.74636
2.74792
2.74843
2.74637
2.74653
2.74561
2.74491
2.74458
2.74272
2.74299
2.74358
2.74453
2.74515
2.74463
2.74506
2.7445
2.74402
2.74372
2.74142
2.74149
2.74173
2.74228
2.74284
2.74163
2.74097
2.74065
2.74055
2.74053
2.74426
2.74443
2.74465
2.74472
2.74403
2.74452
2.74543
2.74541
2.74521
2.74505
2.74341
2.74352
2.74368
2.7438
2.74362
2.74058
2.73972
2.73958
2.73959
2.73962
2.74181
2.7419
2.7421
2.74256
2.74296
2.74528
2.74612
2.74584
2.74551
2.74526
2.74516
2.74547
2.74599
2.74658
2.74625
2.74779
2.74792
2.74679
2.74571
2.74512
2.7466
2.74694
2.74758
2.74827
2.7475
2.75079
2.7565
2.7662
2.77275
2.78036
2.78688
2.74895
2.74934
2.75018
2.75102
2.7527
2.75224
2.75151
2.7512
2.78807
2.77974
2.77066
2.76357
2.75444
2.75077
2.74811
2.74968
2.74958
2.74823
2.74809
2.74922
2.75345
2.7502
2.7509
2.757
2.76633
2.77283
2.78029
2.78657
2.74858
2.74908
2.74994
2.75085
2.74786
2.74693
2.74627
2.74599
2.7443
2.74483
2.74596
2.74741
2.74787
2.74766
2.74736
2.74574
2.74587
2.7459
2.74659
2.7487
2.75061
2.75565
2.7647
2.77153
2.77982
2.78715
2.75015
2.75072
2.75162
2.7523
2.75097
2.75224
2.75698
2.76792
2.77529
2.784
2.7917
2.75245
2.7529
2.75356
2.75394
2.74983
2.74874
2.74776
2.74724
2.74572
2.74605
2.74651
2.74694
2.74606
2.74382
2.74357
2.74311
2.74286
2.74274
2.74052
2.74054
2.74059
2.74076
2.74143
2.74458
2.74535
2.74528
2.74503
2.74484
2.74126
2.74127
2.74131
2.7414
2.74165
2.73965
2.73888
2.73883
2.73887
2.73888
2.74284
2.74293
2.74306
2.7431
2.7428
2.74206
2.74202
2.74195
2.74188
2.74183
2.74048
2.74048
2.74049
2.74054
2.74083
2.73895
2.73836
2.73838
2.73845
2.73848
2.74273
2.74281
2.74294
2.74298
2.74263
2.7417
2.74176
2.74171
2.74165
2.74162
2.73817
2.73815
2.7381
2.7381
2.73868
2.74005
2.73988
2.73984
2.73984
2.73984
2.74024
2.74024
2.74025
2.74029
2.74054
2.74118
2.74102
2.74095
2.74089
2.74085
2.73839
2.73837
2.73833
2.73836
2.73909
2.74022
2.73991
2.7398
2.73978
2.73979
2.74011
2.74012
2.74018
2.74037
2.74092
2.74215
2.74219
2.74205
2.74197
2.74194
2.74318
2.74325
2.74336
2.74344
2.74328
2.74062
2.73979
2.73958
2.73955
2.73955
2.73944
2.73941
2.73945
2.7398
2.74103
2.74118
2.73991
2.73948
2.7394
2.73942
2.73999
2.74001
2.74012
2.74053
2.74174
2.74219
2.74122
2.74092
2.74085
2.74086
2.74238
2.74243
2.7425
2.74263
2.74311
2.74291
2.74305
2.74287
2.74273
2.74263
2.74227
2.74239
2.7426
2.74295
2.74272
2.74596
2.74601
2.74506
2.74441
2.74414
2.75186
2.75208
2.75268
2.75283
2.76207
2.76894
2.77793
2.78628
2.78817
2.78083
2.7723
2.76512
2.75506
2.75056
2.75256
2.75177
2.75071
2.75017
2.74467
2.74498
2.74554
2.74623
2.74599
2.74607
2.74571
2.74553
2.74806
2.75001
2.7509
2.74857
2.74752
2.74992
2.75314
2.76388
2.77151
2.7812
2.79003
2.75069
2.75101
2.75216
2.7532
2.74972
2.74985
2.75659
2.75688
2.75637
2.75641
2.79359
2.78172
2.77026
2.76223
2.75228
2.74679
2.74592
2.74661
2.74754
2.74587
2.74526
2.74404
2.74437
2.74426
2.74393
2.7438
2.74431
2.74349
2.74329
2.74311
2.7433
2.74477
2.74447
2.74285
2.74308
2.7427
2.74192
2.74092
2.73966
2.73857
2.7379
2.73775
2.73773
2.73774
2.73828
2.73824
2.73822
2.73829
2.73872
2.739
2.73811
2.73795
2.73794
2.73795
2.73782
2.73779
2.73781
2.73805
2.73914
2.73946
2.73859
2.73841
2.73839
2.73839
2.74274
2.7429
2.7431
2.74316
2.7422
2.74359
2.74474
2.74474
2.74447
2.74425
2.73988
2.73999
2.74014
2.74035
2.7409
2.74303
2.74389
2.74349
2.74319
2.74299
2.74529
2.74576
2.74675
2.74784
2.74635
2.74903
2.75363
2.76367
2.77027
2.7783
2.78548
2.74861
2.74896
2.74977
2.75043
2.75349
2.75354
2.75313
2.75311
2.78866
2.77867
2.76868
2.76156
2.75236
2.75012
2.74753
2.74863
2.74875
2.74779
2.7508
2.75457
2.75499
2.75464
2.7543
2.79101
2.78093
2.77047
2.76257
2.75306
2.7518
2.74913
2.75295
2.7532
2.75284
2.75269
2.78561
2.77667
2.76738
2.76052
2.7432
2.74363
2.74459
2.74583
2.74583
2.74683
2.74712
2.74592
2.74492
2.74443
2.74308
2.74356
2.74508
2.74708
2.74729
2.74575
2.7458
2.74497
2.74538
2.74557
2.74611
2.74473
2.74496
2.74463
2.74635
2.74799
2.74532
2.74473
2.74389
2.74434
2.74308
2.74286
2.74258
2.74283
2.74228
2.74216
2.74176
2.74184
2.74286
2.74273
2.74271
2.74291
2.74204
2.74191
2.74173
2.74182
2.74151
2.74146
2.74228
2.74241
2.74253
2.74241
2.74326
2.7436
2.74309
2.74297
2.74271
2.7428
2.74402
2.7438
2.74499
2.7454
2.74784
2.74684
2.74783
2.7508
2.75582
2.76528
2.77236
2.78104
2.78863
2.75136
2.75188
2.75265
2.75299
2.75064
2.75003
2.75093
2.75027
2.74942
2.74886
2.78539
2.77961
2.77264
2.76644
2.75758
2.75355
2.7495
2.74991
2.7531
2.74885
2.74773
2.74532
2.74612
2.74544
2.74507
2.74508
2.74546
2.7477
2.7471
2.74437
2.74423
2.74364
2.74268
2.74134
2.74097
2.74254
2.74302
2.74294
2.74274
2.74259
2.74201
2.74212
2.74229
2.74239
2.7422
2.7418
2.74204
2.74196
2.74179
2.74166
2.74172
2.74184
2.74199
2.74206
2.74184
2.74195
2.74211
2.74203
2.74186
2.74173
2.74289
2.74298
2.74308
2.74302
2.74253
2.74239
2.74246
2.74235
2.74217
2.74202
2.7442
2.74438
2.74461
2.74463
2.7438
2.74104
2.74056
2.74042
2.74031
2.74023
2.7404
2.74049
2.74059
2.74071
2.74093
2.74073
2.74005
2.73982
2.73971
2.73964
2.74262
2.74281
2.74312
2.74352
2.74315
2.74307
2.74345
2.74317
2.74297
2.74284
2.74322
2.74209
2.74126
2.74004
2.73997
2.74012
2.74003
2.73991
2.73982
2.74145
2.74162
2.74182
2.74187
2.74126
2.7399
2.73923
2.73907
2.73903
2.73903
2.74287
2.74304
2.74327
2.74332
2.74229
2.74356
2.74498
2.74508
2.74483
2.74459
2.7383
2.73843
2.73865
2.73908
2.74027
2.74284
2.74421
2.74392
2.74356
2.74326
2.74787
2.74805
2.74858
2.74919
2.74538
2.74841
2.75144
2.75036
2.74916
2.74858
2.78686
2.77925
2.77061
2.76346
2.75391
2.74793
2.74646
2.74727
2.74962
2.7502
2.74696
2.74492
2.74601
2.74508
2.74411
2.74319
2.74354
2.74231
2.74212
2.74386
2.74431
2.74707
2.7459
2.74823
2.75102
2.7522
2.74768
2.74699
2.74888
2.75511
2.74897
2.75161
2.75073
2.74975
2.7493
2.78929
2.78187
2.77327
2.76584
2.76569
2.7719
2.77867
2.7843
2.7475
2.7481
2.74904
2.74977
2.74819
2.757
2.74297
2.74233
2.74136
2.74086
2.74069
2.74219
2.74251
2.74296
2.74349
2.74277
2.73979
2.73848
2.73808
2.738
2.738
2.73977
2.73984
2.73994
2.74013
2.74064
2.74203
2.741
2.73946
2.73902
2.73849
2.73834
2.73828
2.73826
2.7376
2.73765
2.7378
2.73814
2.73893
2.73922
2.73875
2.73857
2.7385
2.73846
2.74305
2.7433
2.74363
2.74366
2.74229
2.73958
2.73907
2.73893
2.73886
2.73881
2.73962
2.73977
2.74024
2.7411
2.74205
2.74756
2.75668
2.76529
2.77116
2.77741
2.78239
2.7464
2.74696
2.74786
2.74859
2.74992
2.74944
2.74885
2.74857
2.78402
2.77812
2.77093
2.76444
2.75532
2.74834
2.74282
2.74182
2.74081
2.74024
2.74003
2.73865
2.73875
2.73891
2.73918
2.74004
2.74144
2.7407
2.73941
2.74032
2.74101
2.74098
2.7408
2.74065
2.73768
2.73767
2.73768
2.73785
2.73859
2.74201
2.74317
2.74311
2.74281
2.74258
2.73757
2.73763
2.73772
2.7379
2.73861
2.74109
2.74047
2.73984
2.73952
2.7394
2.74538
2.74593
2.74665
2.74729
2.76657
2.77213
2.77781
2.78238
2.78177
2.77752
2.77212
2.76674
2.75789
2.74677
2.74742
2.74662
2.74577
2.74519
2.73971
2.7398
2.7401
2.74071
2.74135
2.73887
2.73797
2.73777
2.73772
2.73769
2.74079
2.74008
2.73884
2.73987
2.74054
2.74053
2.74037
2.74023
2.7371
2.73709
2.7371
2.73723
2.73791
2.74091
2.74192
2.74191
2.74169
2.74151
2.73778
2.73781
2.73789
2.73806
2.73865
2.74156
2.74198
2.74175
2.74138
2.7411
2.74074
2.7408
2.74082
2.74079
2.74062
2.74236
2.7415
2.74068
2.74031
2.74024
2.7466
2.74736
2.74844
2.74932
2.76603
2.77275
2.78021
2.78621
2.7897
2.78205
2.77307
2.76545
2.75439
2.74907
2.7509
2.75
2.74881
2.74794
2.74176
2.74194
2.74243
2.74327
2.74346
2.74083
2.74097
2.74096
2.74092
2.74086
2.74138
2.74157
2.74181
2.74202
2.74127
2.73773
2.7368
2.73656
2.73649
2.73647
2.73969
2.73894
2.73845
2.73816
2.73809
2.73802
2.73798
2.73989
2.74012
2.74044
2.74071
2.74043
2.73965
2.73957
2.73948
2.73936
2.73924
2.73868
2.73888
2.73943
2.74045
2.74138
2.74646
2.75343
2.76303
2.76943
2.77663
2.78259
2.74645
2.74696
2.74783
2.74851
2.74912
2.74873
2.74819
2.74812
2.78354
2.77564
2.76677
2.75975
2.7502
2.74674
2.74389
2.74573
2.74482
2.74394
2.74355
2.74161
2.74216
2.74362
2.74535
2.74489
2.74808
2.75155
2.75164
2.7512
2.75118
2.78728
2.7772
2.76685
2.75936
2.74991
2.74612
2.74524
2.74281
2.744
2.74581
2.74407
2.74473
2.74858
2.74993
2.74676
2.74696
2.74962
2.74751
2.74534
2.74771
2.75058
2.75
2.74915
2.7488
2.78763
2.77863
2.76907
2.76181
2.75104
2.75233
2.76319
2.76988
2.77786
2.78475
2.74685
2.74708
2.74766
2.74816
2.74702
2.74419
2.74533
2.74459
2.74406
2.74386
2.7412
2.74153
2.74243
2.74392
2.74462
2.74366
2.7429
2.74288
2.74393
2.74251
2.7429
2.74231
2.74119
2.7404
2.73929
2.73835
2.7376
2.73822
2.73841
2.73836
2.73826
2.7382
2.7361
2.73608
2.73606
2.73609
2.73653
2.73875
2.73916
2.73913
2.739
2.73889
2.73694
2.73694
2.73695
2.73705
2.73751
2.74001
2.74095
2.74086
2.74058
2.74036
2.73675
2.73691
2.73714
2.73741
2.73783
2.7396
2.73985
2.73963
2.73945
2.7393
2.74192
2.74234
2.74307
2.7439
2.74331
2.74774
2.7509
2.76093
2.76861
2.77833
2.78716
2.74873
2.74919
2.75009
2.75053
2.74882
2.7478
2.74683
2.74653
2.78612
2.777
2.76746
2.76003
2.74963
2.74609
2.74353
2.7454
2.74627
2.74521
2.74286
2.74311
2.74346
2.74312
2.74219
2.74252
2.74358
2.7421
2.74015
2.74023
2.74067
2.74013
2.73974
2.73948
2.73719
2.73726
2.73738
2.73758
2.73809
2.73925
2.73851
2.7381
2.73796
2.73787
2.73781
2.73777
2.74136
2.74158
2.74187
2.74185
2.74035
2.7378
2.73684
2.73641
2.7362
2.73609
2.74177
2.74205
2.74235
2.74242
2.74118
2.74334
2.74519
2.74424
2.7434
2.74298
2.74583
2.74616
2.74688
2.74767
2.74613
2.75107
2.76287
2.77045
2.7795
2.78787
2.7841
2.77845
2.77156
2.76522
2.75568
2.74533
2.74641
2.74579
2.74505
2.74446
2.73718
2.73733
2.73772
2.73842
2.73934
2.73893
2.73881
2.73842
2.73815
2.73798
2.73772
2.73783
2.73797
2.73816
2.73835
2.74125
2.74092
2.74008
2.73946
2.73917
2.74517
2.74597
2.74705
2.74781
2.74645
2.75219
2.76327
2.7703
2.7784
2.78575
2.78503
2.77706
2.76819
2.76078
2.75036
2.74634
2.74767
2.74705
2.74621
2.74579
2.74157
2.7419
2.74271
2.7438
2.74286
2.7431
2.74383
2.74257
2.74137
2.74067
2.74844
2.74864
2.74916
2.74922
2.74598
2.74757
2.75729
2.76544
2.77666
2.78736
2.78907
2.77682
2.76447
2.75628
2.74959
2.74938
2.74882
2.74855
2.74212
2.74283
2.74422
2.74558
2.74265
2.74262
2.74473
2.74376
2.74271
2.7421
2.74479
2.74526
2.74613
2.74689
2.74512
2.74772
2.75919
2.7674
2.77785
2.78745
2.78391
2.77674
2.76831
2.76083
2.74992
2.74527
2.74544
2.7446
2.74376
2.74329
2.7412
2.74167
2.7424
2.74294
2.7423
2.74247
2.74206
2.74092
2.73995
2.7395
2.74479
2.74532
2.74616
2.74674
2.74543
2.74916
2.75939
2.76665
2.77548
2.78329
2.77933
2.77218
2.76408
2.75732
2.7455
2.74497
2.74418
2.74368
2.73921
2.73953
2.74004
2.74053
2.74
2.74388
2.74847
2.7437
2.74157
2.74271
2.74383
2.74525
2.74385
2.74359
2.74464
2.74192
2.7413
2.74185
2.74285
2.74325
2.74273
2.74387
2.74521
2.74723
2.74451
2.74444
2.74676
2.75063
2.76183
2.76913
2.77838
2.78689
2.74565
2.74628
2.74729
2.74811
2.74649
2.74263
2.74127
2.73941
2.73838
2.7381
2.74152
2.74164
2.74213
2.74296
2.7422
2.74577
2.75239
2.7633
2.76997
2.77781
2.78436
2.74431
2.74468
2.74537
2.74614
2.7492
2.74547
2.74514
2.75056
2.74669
2.74479
2.74229
2.74317
2.74268
2.74196
2.74033
2.74074
2.74192
2.74148
2.74136
2.74188
2.74012
2.73997
2.74104
2.74135
2.74276
2.74209
2.74366
2.74442
2.74513
2.74377
2.74135
2.74026
2.74002
2.73894
2.73837
2.73776
2.73713
2.73628
2.7375
2.73777
2.73771
2.73757
2.73746
2.7349
2.73491
2.73494
2.73507
2.73553
2.73866
2.73919
2.73922
2.7391
2.73901
2.73555
2.73553
2.73553
2.73563
2.73619
2.73879
2.73913
2.73904
2.73884
2.73869
2.73552
2.73549
2.73544
2.73546
2.73607
2.73619
2.73593
2.73586
2.73585
2.73587
2.7395
2.73963
2.73979
2.73982
2.73941
2.73602
2.73531
2.7352
2.73521
2.73522
2.73795
2.73808
2.73824
2.73835
2.7382
2.73769
2.73758
2.73742
2.73732
2.73727
2.7405
2.74082
2.74121
2.74128
2.73953
2.73648
2.73545
2.73518
2.73513
2.73514
2.73435
2.73433
2.7343
2.7344
2.73511
2.7376
2.73759
2.73741
2.73722
2.7371
2.73866
2.73891
2.73923
2.73956
2.73919
2.7378
2.73712
2.73677
2.73662
2.73657
2.73445
2.73455
2.73477
2.73531
2.73654
2.74046
2.74207
2.74205
2.74174
2.74139
2.73907
2.73929
2.73957
2.73981
2.73918
2.73761
2.73758
2.73716
2.73683
2.73663
2.736
2.73613
2.7363
2.73651
2.73646
2.73771
2.73823
2.73798
2.73776
2.73759
2.73943
2.73982
2.74059
2.74151
2.74074
2.74055
2.74194
2.74113
2.74023
2.73963
2.74433
2.74453
2.74538
2.74601
2.75501
2.76233
2.77173
2.78063
2.77905
2.77143
2.76288
2.75591
2.74718
2.74372
2.74485
2.74407
2.74313
2.74268
2.74146
2.74288
2.74153
2.74073
2.73863
2.73895
2.73959
2.73925
2.74008
2.74066
2.73863
2.73822
2.73861
2.73883
2.73952
2.73929
2.74042
2.74088
2.7383
2.73839
2.73788
2.73712
2.73626
2.73539
2.73485
2.73452
2.73441
2.73435
2.73433
2.7372
2.73736
2.7376
2.73774
2.73735
2.73419
2.73347
2.73337
2.73342
2.73347
2.73737
2.7375
2.7377
2.73787
2.73776
2.73874
2.73912
2.73902
2.73877
2.73856
2.73824
2.73838
2.73857
2.7386
2.73761
2.73562
2.73486
2.73455
2.73444
2.7344
2.73449
2.73455
2.73469
2.73494
2.73508
2.73408
2.7339
2.73368
2.7336
2.73358
2.73271
2.73272
2.73276
2.73296
2.73316
2.73639
2.73631
2.73614
2.73596
2.73583
2.73599
2.73616
2.73638
2.73654
2.7369
2.73487
2.7342
2.73386
2.73368
2.73357
2.73812
2.73844
2.73878
2.73897
2.73769
2.73981
2.74257
2.7422
2.74165
2.74121
2.73969
2.73996
2.74023
2.74036
2.73849
2.73606
2.73541
2.73508
2.73492
2.73484
2.73698
2.73629
2.73677
2.73652
2.73639
2.73625
2.73616
2.73298
2.73299
2.73302
2.73316
2.7337
2.73633
2.73622
2.73572
2.7354
2.73521
2.74039
2.74066
2.74093
2.74099
2.73976
2.74456
2.74532
2.74454
2.7436
2.74294
2.78435
2.77769
2.76981
2.76272
2.7515
2.74596
2.74306
2.74254
2.74465
2.74707
2.74429
2.74735
2.7469
2.74611
2.74563
2.78719
2.7769
2.76633
2.75831
2.7568
2.76475
2.77588
2.78724
2.74732
2.74736
2.74792
2.74821
2.74368
2.74661
2.74379
2.74233
2.74191
2.74363
2.74635
2.74277
2.74721
2.74654
2.7457
2.74552
2.7842
2.77462
2.76453
2.7568
2.74341
2.74557
2.74169
2.74086
2.73845
2.73905
2.73774
2.73747
2.73638
2.7365
2.73698
2.73681
2.73722
2.73745
2.73782
2.73762
2.7373
2.73743
2.73668
2.73658
2.73703
2.73714
2.7378
2.73758
2.73801
2.73815
2.73897
2.73866
2.73915
2.73939
2.74043
2.7401
2.74087
2.7415
2.74213
2.74134
2.74221
2.7439
2.74459
2.74347
2.74108
2.74187
2.74016
2.73985
2.73871
2.73881
2.73961
2.73944
2.73873
2.73887
2.73965
2.73939
2.73872
2.73881
2.73819
2.73816
2.73867
2.73869
2.7394
2.73933
2.74009
2.74027
2.74143
2.74095
2.74197
2.74227
2.74431
2.74372
2.74381
2.74455
2.74167
2.74184
2.74118
2.73999
2.73912
2.7383
2.73766
2.73903
2.73923
2.73917
2.73904
2.73896
2.73659
2.73655
2.73653
2.73659
2.73705
2.73957
2.74003
2.73998
2.73981
2.73968
2.73516
2.73516
2.73516
2.73526
2.73612
2.73675
2.73577
2.73563
2.73567
2.73573
2.73784
2.73635
2.73585
2.73579
2.73578
2.73578
2.73503
2.73499
2.73493
2.73496
2.73552
2.73785
2.73793
2.73803
2.73809
2.7379
2.73539
2.73494
2.73493
2.73498
2.73502
2.73513
2.7351
2.73506
2.73507
2.73547
2.73486
2.7341
2.73403
2.73407
2.7341
2.73335
2.73333
2.73329
2.73328
2.7339
2.73477
2.73422
2.73415
2.73412
2.73411
2.73652
2.73658
2.73667
2.73675
2.7367
2.73521
2.73479
2.73475
2.73477
2.73478
2.73722
2.7373
2.73741
2.73747
2.73714
2.73453
2.73389
2.7339
2.73399
2.73405
2.73296
2.73293
2.73285
2.7328
2.7333
2.73531
2.73487
2.73476
2.73471
2.7347
2.73811
2.73826
2.73849
2.73864
2.73839
2.73542
2.73465
2.73457
2.73458
2.7346
2.73528
2.73529
2.73531
2.73539
2.73563
2.73831
2.73861
2.73854
2.73834
2.73819
2.73725
2.73639
2.73507
2.73542
2.73601
2.73597
2.73589
2.73583
2.73284
2.73282
2.73281
2.73286
2.73335
2.73632
2.73622
2.73611
2.73604
2.736
2.73359
2.73358
2.7336
2.73383
2.73488
2.73302
2.7323
2.73215
2.73212
2.73211
2.73151
2.73147
2.73142
2.73146
2.73211
2.7313
2.73077
2.73076
2.73083
2.73086
2.73019
2.73014
2.73002
2.72993
2.73042
2.73168
2.73128
2.73112
2.73112
2.73113
2.7352
2.73531
2.73546
2.73558
2.73564
2.7345
2.73463
2.73452
2.73439
2.7343
2.73572
2.73581
2.73594
2.73605
2.73624
2.73193
2.73091
2.73079
2.73082
2.73085
2.73374
2.73378
2.73387
2.73408
2.73441
2.73719
2.73726
2.73684
2.73648
2.73624
2.73821
2.7385
2.73907
2.73984
2.7401
2.74055
2.73974
2.73852
2.73763
2.73716
2.74221
2.74282
2.74374
2.74463
2.76172
2.76918
2.77746
2.78455
2.78291
2.77714
2.77019
2.76365
2.75189
2.74348
2.74313
2.74224
2.74136
2.74069
2.74252
2.74503
2.74105
2.73988
2.73988
2.74134
2.74066
2.7401
2.74051
2.741
2.73855
2.73815
2.73765
2.73797
2.73653
2.7363
2.73566
2.73578
2.73511
2.73504
2.73538
2.73546
2.73579
2.73568
2.73585
2.7359
2.7363
2.73622
2.73654
2.73666
2.73587
2.73613
2.7362
2.73594
2.73555
2.73516
2.73478
2.73442
2.73407
2.73352
2.73281
2.73245
2.73241
2.73242
2.73244
2.73458
2.73462
2.73469
2.73473
2.73437
2.73369
2.73352
2.73348
2.73348
2.73349
2.73667
2.73677
2.7369
2.73692
2.73656
2.73167
2.73096
2.73096
2.73104
2.73109
2.73429
2.73433
2.73439
2.73448
2.73464
2.73715
2.73738
2.73729
2.73711
2.73696
2.73659
2.7367
2.73686
2.73696
2.73658
2.73572
2.73592
2.7358
2.73564
2.73554
2.73559
2.73566
2.73579
2.73584
2.73557
2.73435
2.73424
2.7342
2.73416
2.73414
2.73397
2.73404
2.73415
2.73421
2.73414
2.7298
2.72919
2.72914
2.72921
2.72926
2.72856
2.72852
2.72847
2.72854
2.7292
2.73319
2.73373
2.73372
2.73366
2.7336
2.73414
2.73419
2.73427
2.73439
2.73466
2.73612
2.73589
2.73577
2.73561
2.73549
2.73179
2.73178
2.73178
2.73189
2.73266
2.73509
2.7347
2.73442
2.73426
2.73418
2.73957
2.7399
2.74023
2.74023
2.73867
2.74041
2.74163
2.7407
2.74001
2.7397
2.73811
2.73875
2.73992
2.74128
2.74027
2.74316
2.74636
2.75683
2.76501
2.77654
2.78765
2.74598
2.74656
2.74757
2.74806
2.7459
2.74521
2.74427
2.74379
2.78523
2.77621
2.76623
2.75832
2.74685
2.74363
2.74225
2.74404
2.74525
2.74291
2.74428
2.75076
2.74011
2.73985
2.73813
2.73919
2.73883
2.73975
2.73985
2.73831
2.73704
2.73587
2.73557
2.73579
2.7355
2.73539
2.73528
2.73521
2.73485
2.73375
2.73249
2.73216
2.73388
2.73399
2.73391
2.73382
2.73376
2.73351
2.73356
2.73366
2.73374
2.73373
2.72839
2.72781
2.72787
2.72797
2.72801
2.72969
2.72965
2.72962
2.7297
2.72998
2.73261
2.73271
2.73258
2.73247
2.73238
2.73443
2.73445
2.73449
2.73453
2.73465
2.73585
2.73567
2.73555
2.73538
2.73526
2.73194
2.7319
2.73186
2.73194
2.73268
2.73494
2.73453
2.73409
2.73384
2.7337
2.74006
2.74043
2.74077
2.74067
2.73838
2.73903
2.73959
2.73886
2.73832
2.73798
2.74002
2.74054
2.74128
2.74196
2.74006
2.74306
2.74933
2.74893
2.748
2.74762
2.79099
2.77911
2.76674
2.75781
2.74669
2.74368
2.74183
2.74184
2.74357
2.74038
2.73984
2.73969
2.74055
2.73775
2.7372
2.73707
2.73731
2.7375
2.73729
2.73873
2.73936
2.73659
2.73649
2.73597
2.73516
2.73439
2.73372
2.73338
2.7329
2.73337
2.73357
2.73354
2.7335
2.73349
2.7325
2.73253
2.73258
2.73263
2.73227
2.73368
2.73384
2.73379
2.7337
2.73364
2.73269
2.7327
2.73273
2.73274
2.73268
2.7322
2.73252
2.73251
2.73246
2.73242
2.73146
2.7315
2.73154
2.7316
2.73094
2.73224
2.73247
2.73246
2.73241
2.73238
2.7328
2.73285
2.73294
2.73301
2.73323
2.72845
2.7279
2.72796
2.72804
2.72807
2.72959
2.72956
2.72952
2.72958
2.72981
2.73268
2.73294
2.7329
2.73283
2.73277
2.73405
2.73409
2.73415
2.73423
2.73446
2.73542
2.73478
2.73459
2.73443
2.73433
2.7323
2.73226
2.73218
2.73217
2.73261
2.7352
2.73496
2.7347
2.7345
2.73439
2.73713
2.73744
2.73774
2.7378
2.73709
2.73777
2.73932
2.73885
2.73824
2.73776
2.73659
2.73701
2.73766
2.73853
2.73811
2.74225
2.74686
2.7455
2.74428
2.74386
2.79107
2.78111
2.77013
2.76096
2.74819
2.7441
2.74062
2.74011
2.74188
2.74054
2.73991
2.73728
2.73781
2.73763
2.73715
2.73636
2.73667
2.73557
2.73541
2.7356
2.73577
2.73604
2.73583
2.73602
2.73617
2.73553
2.73547
2.73511
2.73462
2.73412
2.73362
2.7332
2.73294
2.73245
2.73225
2.73239
2.73241
2.73236
2.73232
2.73231
2.73409
2.73417
2.7343
2.73437
2.73401
2.7296
2.72902
2.72901
2.72909
2.72915
2.72891
2.72886
2.72877
2.72876
2.72921
2.72818
2.72766
2.72772
2.7278
2.72783
2.7292
2.72914
2.7291
2.72913
2.72947
2.72793
2.72748
2.72749
2.72756
2.7276
2.72746
2.72741
2.72733
2.7273
2.72765
2.72689
2.72661
2.72673
2.72685
2.7269
2.7277
2.72768
2.72767
2.72773
2.72797
2.73026
2.73071
2.7307
2.73066
2.73063
2.73137
2.73142
2.73152
2.73162
2.73165
2.7327
2.73244
2.73234
2.73224
2.73217
2.7276
2.72755
2.72744
2.72738
2.72793
2.72973
2.72939
2.72936
2.7294
2.72943
2.73199
2.73205
2.73216
2.73227
2.73227
2.73416
2.73449
2.7345
2.73445
2.73441
2.73501
2.73517
2.73536
2.73546
2.73545
2.73569
2.73543
2.73521
2.73504
2.73493
2.73981
2.74032
2.74073
2.74066
2.73807
2.73746
2.73745
2.73657
2.7359
2.73551
2.73842
2.73877
2.73945
2.74027
2.73867
2.73886
2.74091
2.73985
2.73884
2.7382
2.74692
2.7468
2.74737
2.74754
2.7414
2.74362
2.7555
2.76365
2.77512
2.78682
2.78694
2.77535
2.76328
2.7546
2.7438
2.74154
2.74836
2.74869
2.74835
2.74813
2.74204
2.74241
2.74321
2.74381
2.75384
2.76149
2.7712
2.78005
2.7775
2.7706
2.76265
2.75572
2.74598
2.74115
2.74232
2.74142
2.74051
2.74003
2.73475
2.73505
2.73569
2.73671
2.73755
2.73761
2.7368
2.73567
2.73513
2.73499
2.74029
2.74079
2.74166
2.74242
2.75879
2.76552
2.77285
2.77892
2.78231
2.77628
2.76885
2.76175
2.75066
2.7429
2.74392
2.74314
2.74223
2.74168
2.73465
2.73488
2.73539
2.73626
2.737
2.73802
2.73919
2.73857
2.73819
2.73802
2.74408
2.74462
2.74568
2.74654
2.7609
2.76964
2.78001
2.78925
2.78692
2.77477
2.76305
2.75493
2.7473
2.74731
2.74711
2.74765
2.73761
2.73816
2.73934
2.7407
2.73892
2.73793
2.74176
2.74105
2.74007
2.73941
2.74429
2.74412
2.7446
2.74488
2.75349
2.76103
2.77158
2.78203
2.78083
2.77224
2.76268
2.75513
2.74492
2.7408
2.74364
2.74295
2.74214
2.7417
2.7357
2.73614
2.73706
2.73831
2.73788
2.7378
2.7384
2.73728
2.73657
2.73631
2.74025
2.74085
2.74175
2.74261
2.75954
2.76698
2.77557
2.78284
2.78966
2.78185
2.77258
2.76448
2.75196
2.74335
2.74495
2.74397
2.74281
2.7421
2.73756
2.73779
2.73819
2.73874
2.739
2.7407
2.73942
2.73745
2.73646
2.73628
2.73976
2.74005
2.74059
2.74116
2.74015
2.74241
2.74674
2.76028
2.76899
2.77921
2.78824
2.73941
2.74014
2.74127
2.74257
2.74687
2.7458
2.74458
2.74373
2.79451
2.7836
2.77172
2.76242
2.74792
2.74409
2.74158
2.74478
2.74628
2.74122
2.73974
2.74202
2.74041
2.73849
2.73762
2.73871
2.73682
2.73637
2.73575
2.73629
2.7384
2.73762
2.73949
2.74118
2.74444
2.74157
2.74131
2.74503
2.74244
2.74022
2.73957
2.74171
2.7403
2.73891
2.73834
2.73875
2.73858
2.73816
2.74018
2.74135
2.74146
2.74016
2.73896
2.73893
2.73667
2.73663
2.73711
2.73708
2.73612
2.73531
2.73601
2.73627
2.73626
2.73594
2.73569
2.73598
2.73545
2.73533
2.73537
2.73551
2.73677
2.73639
2.73737
2.73794
2.74046
2.73944
2.73743
2.73784
2.73649
2.7359
2.73505
2.73403
2.73322
2.73262
2.73218
2.73174
2.73133
2.73048
2.73233
2.73246
2.73243
2.73234
2.73229
2.73158
2.73161
2.73169
2.73177
2.73184
2.73163
2.73148
2.7314
2.73132
2.73128
2.73085
2.73087
2.7309
2.73096
2.73119
2.7315
2.73136
2.73131
2.73125
2.73122
2.72707
2.72703
2.72692
2.7268
2.72703
2.72786
2.72776
2.72777
2.72783
2.72786
2.73006
2.73014
2.73024
2.73036
2.73005
2.73065
2.73073
2.7307
2.73067
2.73064
2.73191
2.73194
2.732
2.73202
2.73178
2.73217
2.73209
2.73202
2.73193
2.73188
2.72717
2.72712
2.72705
2.72708
2.72789
2.72968
2.72919
2.72912
2.72918
2.72925
2.7302
2.73018
2.73018
2.73033
2.73102
2.73198
2.73105
2.73084
2.73084
2.73088
2.73378
2.73394
2.7342
2.73454
2.73471
2.73514
2.73481
2.73444
2.73417
2.73399
2.73494
2.73512
2.7353
2.73535
2.73502
2.73437
2.73426
2.73403
2.7338
2.73365
2.73628
2.73653
2.7368
2.73687
2.73586
2.73354
2.73288
2.73264
2.7325
2.73243
2.73347
2.73363
2.73382
2.73405
2.73446
2.73415
2.73338
2.73291
2.73268
2.73253
2.73635
2.73664
2.73701
2.73734
2.73556
2.73236
2.73155
2.73121
2.73109
2.73106
2.73439
2.73459
2.73482
2.73506
2.73462
2.7341
2.73527
2.735
2.73472
2.73452
2.74035
2.74076
2.74115
2.74099
2.73872
2.73481
2.73423
2.73399
2.73388
2.73385
2.73765
2.73801
2.73839
2.73849
2.73751
2.73745
2.73819
2.73805
2.7378
2.73756
2.73695
2.73767
2.73912
2.74099
2.73967
2.74227
2.74497
2.74383
2.74263
2.74206
2.78935
2.77878
2.76742
2.75859
2.74628
2.74166
2.74047
2.73923
2.73987
2.73857
2.73756
2.73623
2.7367
2.73571
2.73526
2.73721
2.73785
2.74111
2.73978
2.73897
2.73974
2.74244
2.74066
2.74041
2.74243
2.74788
2.7419
2.74291
2.74159
2.74055
2.73992
2.78906
2.77982
2.76939
2.7605
2.73752
2.73808
2.73921
2.74065
2.73948
2.73852
2.73872
2.73775
2.73775
2.7379
2.73772
2.73748
2.73635
2.73633
2.73609
2.73572
2.73541
2.73089
2.73095
2.73107
2.73142
2.73275
2.73414
2.73379
2.7335
2.73339
2.73338
2.73865
2.739
2.73943
2.73974
2.73787
2.74141
2.74381
2.75606
2.76465
2.77613
2.78679
2.74461
2.74503
2.74568
2.74588
2.74596
2.74575
2.74503
2.74458
2.78548
2.77474
2.76332
2.75511
2.74418
2.74196
2.7392
2.74021
2.73856
2.7372
2.73658
2.73821
2.73843
2.73908
2.74004
2.73871
2.74234
2.7471
2.75821
2.76612
2.77519
2.78301
2.74002
2.74066
2.74183
2.74295
2.74291
2.74185
2.74076
2.74015
2.78386
2.77641
2.76758
2.75968
2.7476
2.7414
2.74046
2.74235
2.74242
2.74073
2.73945
2.7408
2.73779
2.73721
2.73571
2.73599
2.73495
2.73472
2.73592
2.73626
2.73446
2.73377
2.73308
2.73235
2.73172
2.73115
2.73061
2.73013
2.72966
2.72921
2.72875
2.7283
2.72785
2.7274
2.72695
2.7265
2.72606
2.72562
2.72519
2.72476
2.72437
2.72401
2.72354
2.7233
2.72306
2.7226
2.72255
2.72295
2.72305
2.72305
2.72302
2.72301
2.72449
2.72454
2.72463
2.72469
2.7245
2.72073
2.72064
2.72069
2.72074
2.72075
2.72214
2.72212
2.72209
2.72212
2.72203
2.72437
2.72459
2.72461
2.7246
2.72459
2.72571
2.72573
2.72578
2.72582
2.72574
2.72187
2.7217
2.72174
2.72181
2.72186
2.72537
2.72539
2.72542
2.72538
2.7248
2.72585
2.72598
2.72593
2.72585
2.7258
2.72688
2.72692
2.72698
2.72703
2.72708
2.72333
2.72331
2.72339
2.72347
2.72351
2.72679
2.72684
2.7269
2.72692
2.72619
2.72749
2.72787
2.72791
2.7279
2.72791
2.72906
2.7291
2.72917
2.72918
2.72902
2.72372
2.72325
2.7233
2.72338
2.72341
2.72552
2.72546
2.72538
2.72532
2.72549
2.7275
2.72758
2.72756
2.72754
2.72753
2.7284
2.72841
2.72841
2.72842
2.72823
2.72849
2.7285
2.72847
2.72845
2.72844
2.7305
2.73051
2.73054
2.73049
2.7299
2.73098
2.73098
2.73093
2.73085
2.73081
2.72671
2.72664
2.72653
2.72647
2.72704
2.72763
2.7272
2.72723
2.72732
2.72737
2.72764
2.7276
2.72754
2.72755
2.72807
2.72853
2.72796
2.72791
2.72797
2.72801
2.72887
2.72884
2.7288
2.72889
2.7295
2.73115
2.73033
2.73018
2.7302
2.73024
2.73272
2.73285
2.73302
2.73312
2.73287
2.73461
2.73455
2.73437
2.73413
2.73394
2.73604
2.7363
2.73662
2.73672
2.73609
2.73346
2.73297
2.7328
2.7327
2.73265
2.7338
2.73397
2.73418
2.73426
2.73389
2.73126
2.7306
2.73046
2.73045
2.73046
2.72888
2.72885
2.72887
2.7292
2.73073
2.73206
2.73105
2.73078
2.73067
2.73062
2.73106
2.73116
2.73136
2.7316
2.7316
2.73534
2.73616
2.73621
2.73604
2.73588
2.7319
2.73194
2.73202
2.73218
2.7329
2.73264
2.73292
2.7328
2.7326
2.73246
2.73271
2.73292
2.73318
2.7334
2.73351
2.73304
2.73387
2.73365
2.73346
2.73335
2.73606
2.73635
2.73668
2.73677
2.73593
2.73653
2.73549
2.7349
2.7346
2.73446
2.73799
2.73826
2.73851
2.73861
2.73761
2.73799
2.73903
2.73873
2.73836
2.73804
2.74117
2.7419
2.74314
2.74424
2.74014
2.74263
2.7469
2.74647
2.74555
2.74511
2.79129
2.77748
2.76382
2.75506
2.74429
2.74028
2.73977
2.73934
2.73986
2.73803
2.7373
2.73561
2.73591
2.73486
2.73453
2.73558
2.736
2.73774
2.73719
2.73734
2.73778
2.74049
2.73956
2.74216
2.74533
2.7577
2.76703
2.78035
2.79299
2.74354
2.74416
2.74523
2.74596
2.74354
2.74235
2.74123
2.74063
2.7398
2.7388
2.73872
2.73805
2.73814
2.73805