/*--------------------------------*- C++ -*----------------------------------*\
  =========                 |
  \\      /  F ield         | OpenFOAM: The Open Source CFD Toolbox
   \\    /   O peration     | Website:  https://openfoam.org
    \\  /    A nd           | Version:  7
     \\/     M anipulation  |
\*---------------------------------------------------------------------------*/
FoamFile
{
    version     2.0;
    format      ascii;
    class       volVectorField;
    location    "150";
    object      wallShearStress;
}
// * * * * * * * * * * * * * * * * * * * * * * * * * * * * * * * * * * * * * //

dimensions      [0 2 -2 0 0 0 0];

internalField   uniform (0 0 0);

boundaryField
{
    wall
    {
        type            calculated;
        value           nonuniform List<vector> 
73765
(
(8.04414e-11 -2.90696e-11 -5.60994e-11)
(2.20748e-10 -7.47362e-12 2.02871e-10)
(-2.72361e-11 -2.49322e-11 4.97518e-12)
(-1.32659e-10 -3.33703e-10 2.04244e-10)
(-5.13004e-10 -1.05174e-09 4.65616e-10)
(2.68215e-11 3.55208e-11 2.62845e-10)
(-5.04647e-10 -9.94982e-11 5.50451e-10)
(-1.04905e-10 -2.41628e-11 9.88937e-11)
(-4.40915e-10 -1.38795e-09 1.93222e-10)
(9.52369e-11 6.0441e-11 3.92422e-10)
(-3.34706e-10 4.12232e-11 5.73013e-10)
(1.66524e-10 2.98411e-10 1.99301e-10)
(3.92629e-11 2.94889e-10 4.2439e-10)
(-1.40973e-10 -2.16265e-10 1.72893e-10)
(-3.02561e-10 -5.02549e-10 2.529e-10)
(-1.03243e-09 -1.20145e-09 6.64859e-10)
(-7.21849e-10 -7.28087e-10 7.31141e-10)
(-5.29968e-10 -1.11695e-09 2.39773e-10)
(-8.81493e-11 -1.3618e-09 -3.38478e-12)
(-7.28361e-11 -1.30634e-09 1.77333e-10)
(-2.75298e-10 -1.2814e-09 4.62527e-10)
(-1.63163e-10 -1.06498e-09 6.4075e-11)
(-4.42164e-10 -8.99376e-10 2.41869e-10)
(-2.28964e-10 -8.02101e-10 1.67794e-11)
(3.01237e-11 8.57824e-11 2.41241e-10)
(2.49067e-11 6.81305e-11 1.58638e-10)
(2.15779e-10 3.8968e-11 3.76916e-10)
(3.19868e-10 -1.34428e-10 -1.56953e-10)
(1.49115e-11 7.63282e-12 -6.87049e-12)
(-1.18774e-10 -8.06775e-12 1.41522e-11)
(-1.17417e-10 4.15975e-12 2.49706e-11)
(-9.9906e-11 -4.32027e-11 -1.00274e-11)
(-1.69579e-10 -9.85512e-11 1.39986e-10)
(-7.73886e-11 -1.07394e-09 -2.45257e-10)
(-3.80657e-10 -1.71452e-09 -1.80374e-11)
(8.4855e-11 -9.7041e-10 2.13085e-12)
(-1.37488e-09 -1.72216e-09 7.175e-10)
(-4.26286e-10 -1.04667e-09 2.46063e-10)
(-1.10465e-09 -1.48013e-09 9.14195e-10)
(2.76488e-11 1.02562e-11 8.3204e-11)
(8.17703e-11 1.01874e-10 2.592e-10)
(6.01723e-11 -1.00064e-12 1.05988e-10)
(2.03347e-11 2.0878e-11 1.4193e-10)
(2.46983e-10 1.79182e-10 4.53675e-10)
(2.34599e-10 1.24506e-10 3.09418e-10)
(2.05542e-10 8.48713e-11 3.25228e-10)
(3.45841e-10 -1.1402e-10 -1.29807e-10)
(2.63312e-10 -1.07379e-10 -7.04499e-11)
(-1.75792e-10 -9.65252e-11 5.89729e-10)
(-2.45183e-10 -6.24088e-12 4.41067e-10)
(-1.13023e-10 -1.14511e-10 2.48402e-10)
(-1.83239e-10 -2.11585e-11 -8.27787e-11)
(2.36399e-11 -1.99057e-12 3.70484e-11)
(-1.81057e-10 -2.42858e-11 6.84116e-11)
(-4.15343e-10 -7.46097e-10 3.50961e-10)
(-2.22756e-10 -4.47589e-10 2.55395e-10)
(-2.11917e-10 -5.68221e-10 3.324e-10)
(6.05797e-11 -4.79868e-11 2.11884e-10)
(7.1598e-11 -1.27814e-10 1.71147e-10)
(2.8874e-10 -1.82267e-09 -1.10784e-10)
(2.08714e-10 -1.28787e-09 -7.79993e-11)
(1.29785e-10 -1.19801e-09 -6.29387e-11)
(-7.50167e-10 -1.77469e-09 1.44958e-11)
(-2.62869e-10 -1.70561e-09 -1.03607e-10)
(-3.63108e-11 1.58782e-11 1.73688e-12)
(1.58497e-11 1.87064e-11 -2.28714e-11)
(1.39647e-11 2.06168e-11 -2.85733e-11)
(7.53354e-12 2.1611e-11 -3.22451e-11)
(-6.23921e-12 2.14157e-11 -3.66272e-11)
(1.89833e-10 -1.24358e-09 6.26001e-11)
(-6.57929e-10 -1.35078e-09 3.34363e-10)
(-4.03933e-10 -1.35467e-09 8.30945e-11)
(-1.07795e-09 -1.38169e-09 3.99156e-10)
(-1.02851e-09 -1.60409e-09 5.03664e-10)
(-7.51385e-10 -1.07264e-09 2.19534e-10)
(-5.54271e-10 -8.90905e-10 2.60678e-10)
(-6.17888e-10 -1.19174e-09 7.79675e-11)
(-8.93956e-10 -8.2284e-10 8.28893e-10)
(-1.18305e-09 -1.31055e-09 6.17617e-10)
(-6.03517e-10 -7.72782e-10 8.31655e-10)
(-4.74749e-10 -6.50666e-10 5.72948e-10)
(-1.31626e-10 -1.34958e-09 5.4501e-11)
(-2.47787e-10 -9.95375e-10 1.12054e-10)
(-4.04187e-10 -1.55549e-09 1.15393e-09)
(-3.0487e-10 -1.6644e-09 1.11333e-09)
(-4.39572e-10 -1.28049e-09 7.6153e-10)
(-3.8195e-10 -1.29394e-09 5.45373e-10)
(-1.96179e-10 -9.8894e-10 1.11212e-10)
(-1.00753e-09 -1.8367e-09 1.3096e-09)
(-5.27266e-10 -8.88538e-10 2.38099e-10)
(-5.04346e-10 -1.2187e-09 3.20791e-10)
(2.79401e-10 6.6067e-11 4.12191e-10)
(-2.2905e-10 7.37411e-11 4.03557e-10)
(-1.57036e-10 -1.61057e-09 -7.95451e-11)
(2.83842e-10 -1.67612e-09 -1.34174e-10)
(-3.70084e-10 -1.90776e-09 -4.59037e-11)
(-1.5486e-10 -1.80319e-11 6.86451e-10)
(-2.59849e-10 -3.52942e-11 5.02299e-10)
(-1.244e-10 -3.4247e-11 2.10171e-11)
(-1.44484e-10 -1.08306e-09 7.8599e-11)
(2.0039e-11 5.59372e-11 1.31026e-10)
(-1.69421e-10 -3.96558e-11 5.15125e-10)
(-1.21247e-10 3.59329e-11 -1.0024e-10)
(3.67099e-11 -2.10414e-12 1.93166e-11)
(3.57687e-10 3.98052e-10 5.38465e-10)
(6.82152e-10 3.82346e-10 6.98471e-10)
(-1.4836e-10 -6.94421e-11 -9.70613e-12)
(-1.70143e-10 -1.43124e-10 1.46755e-10)
(-1.5091e-10 -1.42467e-10 1.52165e-10)
(-9.22738e-11 -2.97357e-12 3.77882e-12)
(-1.33927e-10 -1.55939e-11 3.13369e-11)
(1.35624e-10 -5.18002e-10 -3.21186e-11)
(-1.5599e-10 -1.25808e-09 -2.374e-10)
(-1.18515e-10 -9.85099e-10 -2.19699e-10)
(-2.20609e-10 -1.50974e-09 -1.91855e-10)
(3.9908e-11 -8.04046e-11 1.78324e-10)
(-2.73387e-11 1.7912e-11 -1.62862e-11)
(-2.02773e-10 -7.85363e-10 -5.18486e-12)
(-6.13907e-10 -1.61199e-09 3.23273e-10)
(-4.46036e-10 -1.34038e-09 6.96175e-10)
(2.37606e-10 3.66219e-13 2.13172e-10)
(2.74762e-10 -5.04438e-11 1.04348e-11)
(2.8095e-10 -1.41088e-10 -1.05536e-10)
(-1.75336e-10 -6.29923e-11 1.05196e-10)
(-1.96916e-10 -1.33554e-09 -2.31461e-10)
(-1.63693e-10 -1.00378e-09 -2.15347e-10)
(-2.69003e-11 -8.1689e-10 -2.08188e-11)
(-3.86312e-10 -1.75296e-09 9.29785e-12)
(-9.2019e-10 -1.50699e-09 6.3176e-10)
(-1.11172e-10 -8.59459e-10 2.38025e-12)
(-1.95369e-10 -8.28963e-10 -3.814e-11)
(7.21127e-11 8.80386e-11 3.30675e-10)
(6.67963e-11 9.08469e-11 2.74592e-10)
(2.29155e-10 3.75513e-12 2.72636e-10)
(1.89501e-10 -6.30985e-12 2.80016e-10)
(3.87724e-10 -1.12733e-10 -1.05089e-10)
(3.77241e-10 -1.05612e-10 -5.48863e-11)
(3.15481e-10 -7.36202e-11 -2.51919e-11)
(3.33392e-10 -1.23054e-10 -2.49661e-11)
(2.91985e-10 -8.09765e-11 -4.28578e-11)
(3.16527e-10 -1.18964e-10 -7.99504e-11)
(2.97099e-10 -8.09479e-11 -3.36563e-11)
(2.37399e-10 -4.51922e-11 -2.14952e-11)
(1.89868e-10 -5.67524e-11 -3.0605e-11)
(2.50889e-10 -9.01627e-11 -3.81161e-11)
(2.28588e-10 -9.67014e-11 -2.1495e-11)
(2.40773e-10 -1.01287e-10 -1.2368e-10)
(-1.69112e-10 -8.02507e-11 6.44469e-10)
(-2.2403e-10 -6.7411e-11 6.82959e-10)
(-6.86181e-13 -2.42856e-12 -1.5707e-12)
(1.76697e-10 2.03313e-09 9.56016e-09)
(-1.68317e-10 -1.43779e-11 -8.02811e-11)
(-1.8125e-10 -2.15763e-11 -1.06822e-10)
(7.42253e-10 4.39851e-10 5.53086e-10)
(4.36705e-10 3.73337e-10 2.86237e-10)
(9.3598e-10 3.87109e-10 4.35507e-10)
(4.70612e-10 4.49412e-10 4.98285e-10)
(7.92079e-10 4.53079e-10 6.61011e-10)
(7.69932e-10 4.09601e-10 5.37701e-10)
(-1.41781e-10 -3.70963e-11 2.73965e-11)
(-1.7257e-10 -1.32418e-10 2.91188e-11)
(-1.89774e-10 -1.33869e-10 5.98842e-11)
(-1.26706e-10 -6.16187e-11 1.66929e-11)
(-9.66669e-11 1.49325e-11 2.83973e-11)
(-1.59844e-10 -1.97996e-10 2.21112e-11)
(-1.59762e-10 -2.74489e-10 1.9368e-10)
(-1.58685e-10 -1.50098e-10 7.72454e-12)
(-1.55654e-10 -2.15091e-10 4.07227e-11)
(-1.70629e-10 -2.21793e-11 9.45834e-11)
(-1.83028e-10 -3.03595e-11 4.5922e-11)
(-1.75973e-10 -4.29102e-11 6.96049e-11)
(-1.4651e-10 9.43726e-12 9.89642e-11)
(-1.69762e-10 -1.98325e-11 6.93286e-11)
(-1.80312e-10 -6.15327e-11 2.75772e-11)
(-1.38756e-10 -1.31908e-10 1.39822e-10)
(-2.08699e-10 -1.16902e-10 7.54204e-11)
(-1.01612e-10 -1.53909e-11 2.03517e-12)
(-3.80648e-10 -7.65442e-10 4.95234e-10)
(-1.43334e-10 -2.29667e-10 -4.82017e-11)
(1.0578e-10 -3.79903e-10 1.08384e-10)
(-1.07384e-10 -7.88483e-10 -1.72368e-10)
(-8.15937e-12 -6.56003e-10 1.815e-11)
(9.80268e-11 -3.7798e-10 1.31694e-10)
(-1.4474e-10 -9.1716e-13 1.0863e-10)
(-1.68484e-10 -1.22108e-11 1.07916e-10)
(-7.71782e-11 8.76788e-14 1.20178e-10)
(-1.6897e-10 -4.24014e-11 1.20857e-10)
(-1.42809e-10 -1.01156e-10 1.24452e-10)
(-1.39606e-10 -6.0229e-11 3.05938e-11)
(-7.59538e-11 -2.02188e-10 1.81723e-10)
(-2.44786e-10 -2.18449e-09 -4.01362e-10)
(-8.14476e-11 -8.03234e-10 -1.22023e-10)
(-6.68023e-11 -3.8841e-12 1.31321e-10)
(1.05606e-10 -9.99707e-10 -1.05445e-10)
(-5.37769e-10 -2.44567e-09 -1.08484e-10)
(-1.84801e-10 -1.49505e-09 -1.4878e-10)
(-7.4071e-10 -1.63939e-09 6.90571e-12)
(-7.3841e-10 -1.78673e-09 1.22044e-11)
(-2.12951e-12 2.23349e-11 -3.52365e-11)
(-1.32245e-09 -1.69374e-09 3.66391e-10)
(-1.00367e-09 -1.69176e-09 7.60693e-10)
(-6.77133e-10 -1.90016e-09 3.27858e-10)
(-5.01976e-10 -1.36446e-09 6.6234e-11)
(-1.24027e-09 -1.72853e-09 1.16694e-09)
(-5.90183e-10 -7.69602e-10 3.92552e-10)
(-1.34307e-09 -1.80565e-09 6.22916e-10)
(-1.59883e-10 -1.36753e-09 2.32847e-10)
(-4.34778e-11 -8.14939e-10 5.94705e-11)
(-1.6888e-10 -1.74235e-09 3.67562e-10)
(-8.94916e-11 -1.15658e-09 2.19031e-11)
(-8.18112e-10 -1.26848e-09 3.97066e-10)
(-9.25208e-10 -1.81346e-09 5.61727e-10)
(-7.53975e-10 -1.38031e-09 4.20747e-10)
(-2.29603e-10 1.36821e-10 4.09843e-10)
(-2.92336e-11 -3.28431e-11 1.37195e-11)
(-2.5552e-10 -6.71146e-12 5.15554e-10)
(-2.15784e-10 -2.00462e-09 -4.05615e-10)
(-4.89313e-10 -1.75868e-09 2.50042e-11)
(-1.27235e-10 -3.74595e-11 4.20491e-10)
(3.63846e-10 -7.02935e-11 -4.32878e-11)
(-4.68948e-10 -1.74171e-09 4.87309e-11)
(-5.68841e-10 -1.17048e-09 4.92694e-10)
(2.69788e-10 1.6578e-10 3.14241e-10)
(2.91542e-10 -1.06644e-10 -2.89031e-11)
(2.77863e-10 -7.67102e-11 -3.77185e-11)
(1.00654e-11 3.2222e-12 -8.92343e-12)
(-9.47619e-11 -6.91465e-10 6.08574e-11)
(2.04912e-10 -8.93362e-11 -7.2493e-11)
(-3.80197e-10 -6.41126e-11 6.69961e-10)
(-1.09163e-10 3.50622e-11 -9.04614e-11)
(4.26273e-11 1.79555e-11 6.01823e-11)
(-1.68756e-10 -1.76986e-10 7.16995e-11)
(-1.64093e-10 -1.74441e-10 6.74199e-11)
(-6.12143e-11 1.96924e-12 1.27611e-10)
(7.60308e-12 6.55493e-13 -1.91386e-11)
(2.41537e-13 1.53779e-12 -1.46592e-12)
(2.75322e-10 -5.16224e-11 3.14967e-10)
(4.24284e-11 -5.47287e-13 6.12385e-11)
(-9.51594e-12 -6.81462e-11 -1.36739e-10)
(5.20746e-12 3.08513e-12 2.68081e-11)
(1.25636e-11 4.11845e-12 -5.62114e-12)
(6.60442e-11 -8.38363e-12 4.80947e-11)
(2.18756e-10 -6.44871e-11 2.17916e-10)
(1.99796e-10 -3.16417e-11 3.23461e-10)
(-1.10191e-10 2.70381e-11 1.22927e-10)
(1.96899e-11 3.23338e-12 -4.17614e-11)
(-3.86253e-11 -1.96455e-11 -1.61393e-11)
(-2.33238e-11 -1.97756e-11 -1.91597e-12)
(-4.43166e-11 -1.61583e-10 3.48746e-10)
(3.69705e-10 -1.07785e-10 -1.34546e-10)
(2.27891e-10 -8.39455e-11 -3.02817e-11)
(-1.93362e-10 -5.9619e-11 3.8524e-10)
(1.19329e-11 1.98049e-12 -8.33519e-12)
(-4.6524e-11 -1.02916e-11 -1.57333e-11)
(-6.48942e-11 -7.15177e-12 -4.00608e-11)
(6.15823e-11 5.64977e-11 1.19646e-10)
(-6.19134e-11 -3.06543e-10 2.30487e-10)
(6.02719e-11 9.4272e-11 1.46894e-10)
(-2.03255e-11 -4.2606e-11 1.1807e-10)
(-9.71181e-10 -2.32693e-09 6.13861e-11)
(4.09156e-11 1.9972e-11 6.45701e-11)
(3.70236e-11 1.03424e-10 2.50021e-10)
(2.23853e-12 1.03088e-10 2.99631e-10)
(7.79078e-11 -3.52239e-11 -6.51534e-11)
(1.65432e-11 -2.09357e-12 -1.09257e-11)
(4.39261e-12 8.9352e-13 -4.80714e-12)
(6.42166e-13 1.47879e-12 -1.85787e-12)
(-1.71837e-10 4.34752e-12 4.74204e-10)
(-1.55299e-10 4.21704e-11 4.4792e-10)
(-1.63718e-10 7.18725e-11 4.68908e-10)
(-3.27956e-12 -7.27607e-13 1.73379e-12)
(-7.7029e-12 1.84628e-12 1.34913e-12)
(-1.06404e-11 2.19545e-12 1.15585e-12)
(-9.95429e-12 2.16131e-12 1.24565e-12)
(-1.24817e-10 1.33674e-11 3.70966e-10)
(-4.07627e-12 4.54235e-13 7.80387e-13)
(6.45766e-11 -8.41856e-12 4.69838e-11)
(-1.51449e-10 3.7659e-11 4.16152e-10)
(7.02468e-11 -9.80046e-12 5.03177e-11)
(7.47396e-11 -1.2402e-11 5.48966e-11)
(-4.88251e-10 -4.08708e-12 -1.074e-10)
(-5.90428e-11 2.80325e-11 2.4015e-10)
(-5.70452e-11 2.64973e-11 2.18517e-10)
(-4.91604e-12 -3.39497e-13 3.6879e-11)
(-1.52609e-10 -2.33579e-11 -4.95335e-11)
(-1.59568e-10 -2.22057e-12 -6.63115e-11)
(8.70523e-11 -9.12603e-12 -3.00272e-11)
(-1.0673e-10 2.69274e-11 -8.92831e-11)
(-2.54512e-10 1.97104e-11 2.50136e-10)
(-6.57472e-11 -9.2235e-12 -3.56302e-11)
(-3.83044e-12 -2.16526e-11 2.73808e-11)
(-4.13742e-11 -2.3493e-11 -2.06698e-11)
(-2.6243e-11 -2.30685e-11 -6.9497e-12)
(5.93925e-11 6.21147e-11 1.1627e-10)
(5.82095e-11 7.30236e-11 1.22183e-10)
(-3.21726e-11 -1.31718e-10 1.87812e-10)
(-9.22534e-11 -1.61957e-10 2.15572e-10)
(-2.88389e-11 -9.98788e-11 2.72096e-11)
(-6.25453e-11 -3.45985e-10 3.82975e-11)
(-4.72002e-11 -1.37103e-10 1.4981e-11)
(-1.326e-10 -5.82274e-10 2.59383e-10)
(-2.56795e-11 -1.51674e-11 -8.10082e-12)
(-1.73536e-11 -1.48654e-11 -4.43693e-12)
(4.00922e-11 3.97784e-11 9.49306e-11)
(3.17993e-11 6.07953e-11 1.26957e-10)
(4.37355e-11 5.49256e-12 8.62835e-11)
(9.59725e-11 -2.27281e-11 4.15343e-10)
(6.59574e-11 7.83897e-11 3.19618e-10)
(3.99043e-11 7.95332e-11 1.97606e-10)
(2.42366e-11 3.40774e-11 1.27876e-10)
(4.24105e-11 2.46198e-11 7.14884e-11)
(3.14722e-11 6.80715e-11 1.13145e-10)
(2.47036e-10 7.28814e-11 3.72562e-10)
(1.56724e-10 9.84547e-11 3.96805e-10)
(2.23873e-11 9.31855e-11 2.18284e-10)
(3.63212e-11 4.39509e-11 7.87316e-11)
(2.48781e-10 1.07252e-10 4.00634e-10)
(4.44012e-12 1.01431e-10 1.78313e-10)
(3.83158e-11 -4.16189e-12 6.91398e-11)
(2.06048e-10 -4.48926e-11 3.26652e-10)
(2.36626e-10 9.72543e-11 3.72445e-10)
(5.51715e-11 8.64861e-11 2.76402e-10)
(2.64391e-11 -5.89952e-12 9.05118e-11)
(3.46915e-11 4.31423e-12 5.19665e-11)
(3.52152e-11 1.83571e-11 5.46401e-11)
(2.3835e-10 9.53267e-11 3.33861e-10)
(-3.92756e-12 1.02572e-10 1.44381e-10)
(2.04942e-11 -6.3013e-12 9.87595e-11)
(2.07822e-10 1.04446e-11 3.71994e-10)
(-3.9846e-12 9.43335e-11 2.40646e-10)
(1.51525e-11 -3.9671e-12 9.60571e-11)
(2.67192e-11 -7.28055e-12 5.6124e-11)
(1.98799e-10 -3.58942e-11 3.12404e-10)
(3.30306e-11 1.19603e-11 4.93513e-11)
(1.75036e-10 3.06173e-11 2.39679e-10)
(1.17903e-12 9.1882e-11 1.15941e-10)
(5.10287e-11 7.47203e-11 3.72773e-10)
(-3.56039e-11 8.40252e-11 2.84348e-10)
(-5.09143e-11 1.1048e-10 2.14272e-10)
(-9.82848e-12 1.0325e-10 2.49297e-10)
(1.10381e-11 -2.6294e-12 1.05815e-10)
(3.51296e-11 2.94264e-11 6.36538e-11)
(2.5746e-10 1.05306e-10 3.04138e-10)
(6.20499e-11 5.9943e-11 3.807e-10)
(-3.42283e-11 9.73822e-11 1.53725e-10)
(-3.02177e-11 7.48962e-11 1.92839e-10)
(6.8628e-12 1.54541e-12 1.04412e-10)
(6.2212e-11 1.26432e-10 3.15457e-10)
(2.69678e-11 -7.70194e-12 5.51468e-11)
(1.99877e-10 2.60707e-11 3.68838e-10)
(2.25552e-10 -4.66994e-11 3.58374e-10)
(1.93806e-10 3.46261e-11 2.66605e-10)
(4.04708e-11 5.12786e-11 9.15015e-11)
(2.76368e-10 1.11556e-10 3.13442e-10)
(8.44868e-11 3.96998e-11 3.98731e-10)
(-3.85876e-11 8.06102e-11 1.91383e-10)
(6.62341e-12 5.30471e-12 1.1355e-10)
(1.88927e-11 -4.79076e-13 9.45332e-11)
(3.78606e-11 -7.68875e-12 5.9566e-11)
(5.53264e-11 2.00065e-11 8.49306e-11)
(1.23955e-10 6.31148e-11 5.31493e-10)
(-1.97004e-11 7.91644e-11 1.12508e-10)
(-3.82679e-11 5.05566e-11 1.47428e-10)
(-2.45675e-11 3.03295e-11 1.36059e-10)
(-7.2505e-12 1.88742e-11 1.24121e-10)
(8.40822e-12 1.01772e-11 1.14968e-10)
(2.33791e-11 3.71426e-12 1.04249e-10)
(2.9434e-10 -2.03859e-11 7.78549e-10)
(7.95004e-11 4.37922e-11 1.32818e-10)
(1.26961e-10 -1.77532e-10 -1.36586e-10)
(1.19049e-11 6.70443e-11 1.07662e-10)
(-2.36204e-11 3.13136e-11 1.22957e-10)
(-6.65338e-12 2.04807e-11 1.19807e-10)
(1.30393e-11 1.31865e-11 1.14347e-10)
(2.89219e-11 8.20571e-12 1.09966e-10)
(-4.28064e-11 1.39545e-10 1.80753e-10)
(4.8466e-11 -4.37681e-12 8.66607e-11)
(7.89428e-11 -4.30484e-13 1.08789e-10)
(4.67789e-10 -1.18277e-10 -1.35761e-10)
(1.6636e-10 4.49848e-11 1.89602e-10)
(4.72175e-10 -1.22358e-10 -1.07732e-10)
(4.8005e-10 -1.18993e-10 -9.70391e-11)
(5.0319e-10 -1.54467e-10 -1.55503e-10)
(-6.07156e-11 3.35379e-12 1.42453e-11)
(-3.47305e-11 1.88629e-11 4.27991e-11)
(3.85964e-13 2.1037e-11 1.04755e-10)
(1.87426e-11 1.52299e-11 1.09966e-10)
(3.87946e-10 -1.42463e-10 -9.82784e-11)
(7.59564e-11 4.43456e-11 1.24715e-10)
(2.95693e-10 -2.27846e-10 -2.56144e-10)
(1.88041e-10 -2.11704e-10 -2.839e-10)
(8.88913e-11 -1.76854e-10 -2.70369e-10)
(1.6455e-11 -1.10854e-10 -2.01288e-10)
(-1.41844e-11 -5.23565e-11 -1.17273e-10)
(-1.88229e-11 -1.3939e-11 -3.70028e-11)
(-1.18551e-11 3.7763e-12 1.64859e-11)
(2.37773e-12 1.60859e-11 3.82946e-11)
(-4.72948e-11 6.55712e-11 6.1252e-11)
(8.91156e-11 -1.10598e-12 1.14789e-10)
(1.82262e-10 5.02303e-11 1.87595e-10)
(1.19421e-10 3.09877e-11 1.42724e-10)
(1.20597e-11 1.7163e-12 1.48765e-11)
(1.36503e-10 1.46316e-11 1.28058e-10)
(2.91432e-10 -2.46504e-11 -3.2741e-10)
(3.49215e-10 -6.42427e-11 -1.86764e-10)
(1.81347e-10 3.52077e-11 1.83323e-10)
(5.34949e-11 8.50046e-13 5.24487e-11)
(2.57201e-10 -1.25266e-10 -1.12839e-10)
(4.80572e-12 2.59571e-12 8.74251e-12)
(1.09804e-10 8.54925e-12 1.11354e-10)
(7.50953e-11 -1.27213e-11 -2.41445e-10)
(1.58285e-10 3.04874e-11 1.44989e-10)
(1.82519e-10 3.72917e-11 1.72076e-10)
(8.16878e-11 -5.04982e-13 7.33217e-11)
(1.93465e-10 -1.05804e-10 -1.51157e-10)
(1.65823e-10 -9.4682e-11 -1.67765e-10)
(1.30365e-10 -7.92104e-11 -1.75144e-10)
(1.26988e-10 1.47283e-11 1.21055e-10)
(7.29356e-11 -2.32441e-11 -1.80398e-10)
(1.89203e-10 -1.61344e-11 -1.8357e-10)
(1.075e-10 -3.54918e-12 8.81271e-11)
(1.00462e-10 -4.75269e-11 -1.26378e-10)
(8.18651e-11 -3.4164e-11 -1.16797e-10)
(4.81276e-11 -1.24538e-11 9.28942e-12)
(5.86849e-11 -2.43201e-11 -1.28152e-10)
(1.5125e-10 2.38453e-11 1.32601e-10)
(1.55851e-10 -2.69605e-11 -1.09111e-10)
(1.81521e-10 -7.6457e-13 1.58025e-10)
(1.14809e-10 -4.47583e-12 8.60616e-11)
(1.32037e-10 -4.76574e-12 1.04313e-10)
(6.71628e-11 -1.81478e-11 -8.61804e-11)
(7.06363e-11 -1.03879e-11 3.37925e-11)
(1.49243e-10 1.95344e-11 1.20352e-10)
(3.36593e-11 -3.15316e-11 -7.34329e-11)
(1.164e-10 -3.15789e-11 -9.59574e-11)
(2.06638e-10 -4.49197e-12 1.734e-10)
(6.2894e-11 -8.76676e-12 -3.02819e-12)
(1.12439e-10 6.60436e-12 3.52125e-11)
(1.25818e-10 -4.44203e-12 9.43983e-11)
(5.13309e-11 -7.62682e-12 -5.98276e-11)
(9.10305e-11 -1.07057e-11 4.85066e-11)
(1.67692e-10 1.99181e-11 1.37412e-10)
(3.20391e-11 -2.76585e-11 -3.89425e-11)
(5.79413e-11 -2.50397e-11 -1.63771e-11)
(9.12163e-11 -3.67523e-11 -8.49192e-11)
(7.21202e-11 -3.43538e-11 -8.57751e-11)
(2.28806e-10 3.59658e-11 2.11986e-10)
(2.18268e-10 -5.4699e-12 1.81634e-10)
(3.25068e-11 -2.87026e-12 -1.30238e-11)
(9.1681e-11 -1.46043e-11 1.46285e-11)
(1.08988e-10 6.55077e-12 4.2455e-11)
(1.07061e-10 2.56025e-12 5.1398e-11)
(1.34355e-10 -5.83847e-12 1.0086e-10)
(1.05324e-10 -1.10009e-11 5.9225e-11)
(7.52343e-11 -2.65307e-11 2.03452e-11)
(5.52638e-11 -3.31147e-11 -6.16285e-11)
(4.65989e-11 -3.22133e-11 -5.74472e-11)
(1.97225e-10 4.0445e-11 1.71415e-10)
(2.44578e-10 4.10534e-11 2.23122e-10)
(2.36932e-10 -7.43176e-12 1.95821e-10)
(2.12777e-11 4.99861e-13 -1.46702e-11)
(3.0289e-11 -6.19064e-12 -1.25012e-12)
(1.0266e-10 2.30719e-12 5.42732e-11)
(1.07815e-10 1.31056e-12 6.29141e-11)
(1.49163e-10 -7.12544e-12 1.07726e-10)
(2.93186e-11 2.89098e-13 -3.17596e-11)
(1.21656e-10 -1.31589e-11 6.70802e-11)
(1.96926e-10 2.12178e-11 1.44263e-10)
(8.01161e-11 -1.93389e-11 3.47547e-11)
(1.94248e-10 3.3771e-11 1.5532e-10)
(2.36412e-11 -2.43771e-11 -3.09055e-11)
(2.14403e-11 -1.96363e-11 -2.32073e-11)
(2.15234e-10 4.31961e-11 1.8507e-10)
(-2.65807e-10 -7.2162e-11 5.07366e-10)
(-2.61451e-10 -7.41594e-11 4.80525e-10)
(2.62877e-10 1.3872e-11 2.3296e-10)
(1.14462e-11 2.53851e-12 -1.17783e-11)
(1.02092e-10 1.04057e-13 6.46599e-11)
(1.1555e-10 5.57714e-13 7.49659e-11)
(1.23317e-10 1.11909e-14 8.00403e-11)
(1.67554e-10 -9.43794e-12 1.18476e-10)
(1.60553e-11 1.85064e-12 -1.95666e-11)
(1.31976e-10 -1.46527e-11 7.19959e-11)
(1.99044e-10 2.20293e-11 1.43213e-10)
(2.21172e-10 4.08975e-11 1.78573e-10)
(-2.43547e-10 -7.34962e-11 4.80013e-10)
(2.46506e-10 4.80033e-11 2.17522e-10)
(2.79009e-10 1.62887e-11 2.4554e-10)
(-2.25497e-10 -4.36794e-11 3.94861e-10)
(2.69609e-12 3.48732e-12 -6.54701e-12)
(1.08325e-10 -6.56245e-13 7.37706e-11)
(1.17398e-10 -1.49714e-13 7.8883e-11)
(1.36802e-10 8.61736e-13 9.10888e-11)
(1.69966e-10 -5.59637e-12 1.13665e-10)
(1.82608e-10 -9.89033e-12 1.24681e-10)
(-2.13481e-10 -8.37719e-12 4.68128e-10)
(7.53879e-12 2.31878e-12 -8.2629e-12)
(1.43093e-10 -1.68257e-11 7.66784e-11)
(2.29243e-10 2.90857e-11 1.58778e-10)
(-1.61598e-10 -6.548e-11 4.27948e-10)
(2.23909e-12 -7.6267e-12 -7.01839e-12)
(1.8463e-12 -4.36508e-12 -3.53165e-12)
(6.50153e-12 4.67049e-13 1.55783e-12)
(3.27481e-11 3.73106e-12 1.12636e-11)
(2.48207e-10 4.91181e-11 2.20967e-10)
(-2.2445e-10 -7.88982e-11 4.33307e-10)
(-2.33154e-10 -7.15881e-11 4.17392e-10)
(2.82397e-10 1.25269e-11 2.4451e-10)
(-2.74107e-13 -3.11453e-12 3.75626e-12)
(7.92537e-11 -2.07282e-12 4.99101e-11)
(-1.97084e-10 -1.3481e-11 3.6354e-10)
(-2.7032e-12 4.03566e-12 -2.66935e-12)
(1.27146e-10 2.96281e-13 8.74797e-11)
(1.38929e-10 9.62959e-13 9.21169e-11)
(1.71395e-10 -5.78595e-12 1.12004e-10)
(1.86558e-10 -1.1265e-11 1.253e-10)
(-2.12227e-10 9.24316e-12 4.58704e-10)
(-2.13578e-10 9.9268e-12 4.77053e-10)
(-2.38784e-10 1.75962e-11 5.22066e-10)
(-2.8009e-10 -2.04791e-12 4.80458e-10)
(1.56851e-10 -1.98078e-11 7.8768e-11)
(2.32969e-10 2.60344e-11 1.59924e-10)
(-1.78909e-10 -6.90022e-11 4.14184e-10)
(-1.44483e-10 -3.36116e-11 5.25794e-10)
(2.17474e-12 -5.53982e-12 -3.9129e-12)
(-9.75957e-13 -4.09503e-12 -2.69694e-12)
(-4.66025e-12 -2.84406e-12 -1.59501e-12)
(-7.44138e-12 -1.35859e-12 -5.93743e-13)
(-8.61092e-12 3.92111e-13 2.67888e-13)
(-6.77612e-12 2.20238e-12 1.03771e-12)
(7.63534e-12 4.07071e-12 2.59543e-12)
(-2.95878e-12 -5.00226e-13 7.86877e-13)
(5.91519e-11 -1.10983e-11 1.76622e-11)
(2.96074e-10 1.23398e-11 2.57334e-10)
(7.76096e-11 -3.61799e-12 5.41131e-11)
(1.32703e-10 1.53035e-13 9.09819e-11)
(1.49266e-10 2.17638e-12 9.83075e-11)
(1.79237e-10 -6.74935e-12 1.18123e-10)
(2.00228e-10 -1.14479e-11 1.31729e-10)
(-1.98854e-10 1.49336e-11 4.4279e-10)
(-2.11672e-10 2.47094e-11 4.90778e-10)
(-2.48988e-10 2.88365e-11 5.52767e-10)
(-2.94224e-10 2.718e-11 5.58769e-10)
(-3.01924e-10 1.93448e-11 6.76189e-10)
(-3.45858e-10 -4.43874e-11 5.39064e-10)
(-1.23757e-10 -2.75188e-11 4.91009e-10)
(-2.08256e-10 -6.26616e-11 3.91543e-10)
(-2.0898e-10 4.53347e-11 6.10102e-10)
(-2.02655e-10 -5.48903e-11 3.41028e-10)
(3.00184e-10 1.00859e-11 2.58289e-10)
(-3.3478e-12 1.41899e-12 7.3298e-13)
(8.09177e-11 -5.38888e-12 6.00419e-11)
(-1.77139e-10 -1.06003e-11 3.27559e-10)
(-2.44547e-10 9.26755e-11 5.38341e-10)
(1.41884e-10 2.43816e-12 9.32899e-11)
(1.55026e-10 2.36514e-12 1.01277e-10)
(1.8753e-10 -7.03038e-12 1.20819e-10)
(2.12083e-10 -1.50216e-11 1.35126e-10)
(-1.84484e-10 1.36148e-11 3.96384e-10)
(-1.95899e-10 2.47429e-11 4.51591e-10)
(-2.56071e-10 4.54648e-11 5.64587e-10)
(-2.65066e-10 4.07366e-11 5.88907e-10)
(-2.32418e-10 2.78039e-11 5.85953e-10)
(-1.44461e-10 -5.95944e-11 3.42726e-10)
(-1.07043e-10 -1.20831e-11 4.42482e-10)
(-1.46706e-10 4.30011e-11 5.10191e-10)
(-1.97632e-10 -6.45532e-11 3.61788e-10)
(5.22491e-11 -6.26781e-12 3.74045e-11)
(5.9244e-11 -5.99668e-12 4.26396e-11)
(3.10594e-10 6.74488e-12 2.65363e-10)
(9.33466e-11 -4.31786e-12 7.02891e-11)
(1.52408e-10 2.78425e-12 9.91164e-11)
(1.67922e-10 4.46686e-12 1.04645e-10)
(2.02354e-10 -9.40782e-12 1.23202e-10)
(2.31183e-10 -1.69778e-11 1.40139e-10)
(-1.73625e-10 1.82021e-11 4.00659e-10)
(-2.35235e-10 4.62389e-11 5.45142e-10)
(-2.29735e-10 4.95435e-11 5.51217e-10)
(1.66022e-10 -2.87237e-11 7.77075e-11)
(-1.56752e-10 -5.24459e-11 3.24253e-10)
(-9.73978e-11 1.19449e-12 4.14726e-10)
(-1.77653e-10 -5.79758e-11 3.33475e-10)
(6.40738e-11 -6.86271e-12 4.65238e-11)
(3.05501e-10 3.87421e-12 2.5789e-10)
(9.83665e-11 -5.48804e-12 7.27096e-11)
(-1.51353e-10 -8.36404e-12 2.84107e-10)
(1.60934e-10 5.878e-12 1.01602e-10)
(1.7327e-10 5.72008e-12 1.04421e-10)
(1.84836e-10 4.04927e-12 1.06951e-10)
(2.1544e-10 -1.02196e-11 1.22443e-10)
(2.42628e-10 -2.10015e-11 1.36842e-10)
(-1.61555e-10 1.59255e-11 3.52123e-10)
(-2.0753e-10 4.95691e-11 5.13803e-10)
(-2.13894e-10 5.33451e-11 5.33127e-10)
(1.74264e-10 -3.28265e-11 7.82746e-11)
(-1.63424e-10 -4.60168e-11 3.08008e-10)
(-8.73956e-11 1.47852e-11 3.97972e-10)
(-1.80162e-10 -4.79046e-11 3.17012e-10)
(-1.73664e-10 5.39313e-11 5.23702e-10)
(2.97744e-10 -1.27458e-12 2.51315e-10)
(-1.55027e-10 -2.73941e-11 2.5424e-10)
(-1.93607e-10 3.81619e-11 5.28704e-10)
(1.03379e-10 -3.72808e-12 7.69212e-11)
(-1.85926e-10 3.74019e-11 4.98854e-10)
(1.8641e-10 7.80549e-12 1.07411e-10)
(1.9664e-10 6.16843e-12 1.09174e-10)
(2.32923e-10 -1.24594e-11 1.24995e-10)
(2.6421e-10 -2.26437e-11 1.43452e-10)
(-1.48031e-10 2.36905e-11 3.49221e-10)
(-1.89712e-10 4.71996e-11 4.78218e-10)
(-2.00685e-10 5.0492e-11 5.08405e-10)
(1.81068e-10 -3.60427e-11 7.73413e-11)
(2.91751e-10 4.67625e-11 1.75659e-10)
(9.28728e-11 -1.3658e-11 6.23181e-11)
(-1.10788e-10 6.68962e-11 4.52473e-10)
(7.3324e-11 -9.91578e-12 5.19942e-11)
(-1.8067e-10 6.67267e-11 5.15753e-10)
(7.75243e-11 -7.09796e-12 5.90777e-11)
(2.71781e-10 -4.33204e-12 2.31965e-10)
(3.03683e-10 -3.66173e-11 2.1412e-10)
(1.89447e-10 1.09062e-11 1.03141e-10)
(2.06439e-10 7.14069e-12 1.08337e-10)
(2.48157e-10 -1.22597e-11 1.23468e-10)
(2.68141e-10 -2.48151e-11 1.36048e-10)
(-1.36368e-10 1.84403e-11 3.05925e-10)
(-1.89555e-10 5.24507e-11 4.81618e-10)
(1.89339e-10 -4.08242e-11 7.77897e-11)
(2.77998e-10 4.93574e-11 1.61466e-10)
(-8.46065e-11 -3.50597e-11 2.41506e-10)
(1.28341e-10 -2.57037e-11 7.01297e-11)
(-1.41983e-10 -3.47945e-11 2.51927e-10)
(9.59222e-11 -1.5103e-11 6.33291e-11)
(7.75781e-11 -1.12198e-11 5.49734e-11)
(7.0784e-11 -1.04996e-11 5.27167e-11)
(-1.43971e-10 -3.77943e-11 2.37319e-10)
(-1.3741e-10 -2.14663e-11 2.23587e-10)
(1.26022e-10 -1.83368e-13 8.87052e-11)
(2.80228e-10 -3.6878e-11 1.99707e-10)
(2.03779e-10 1.37577e-11 1.07378e-10)
(2.15754e-10 1.12471e-11 1.06663e-10)
(2.55224e-10 -1.34963e-11 1.18709e-10)
(2.76789e-10 -2.39338e-11 1.36437e-10)
(-1.30105e-10 2.15852e-11 3.02054e-10)
(2.46056e-10 5.37739e-11 1.35573e-10)
(-8.99596e-11 -3.34159e-11 2.12136e-10)
(-8.29068e-11 -3.17884e-11 2.1525e-10)
(-7.76645e-11 -2.88142e-11 2.12761e-10)
(1.31188e-10 -2.82804e-11 6.9808e-11)
(-1.44994e-10 -2.77603e-11 2.36569e-10)
(-5.67143e-11 2.48698e-11 2.94218e-10)
(1.02521e-10 -1.90232e-11 6.67452e-11)
(1.78096e-10 5.21968e-11 1.65836e-10)
(-1.51819e-10 -3.65938e-11 2.55361e-10)
(-1.45297e-10 -4.16505e-11 2.43396e-10)
(-1.22123e-10 1.2158e-10 4.64038e-10)
(1.41008e-10 3.40393e-12 1.56359e-10)
(-1.85771e-10 7.4826e-11 4.69847e-10)
(1.33379e-10 3.80083e-12 9.28881e-11)
(2.22734e-10 -3.28927e-11 1.70246e-10)
(2.06096e-10 1.69734e-11 1.0322e-10)
(2.27163e-10 1.31885e-11 1.05867e-10)
(2.67079e-10 -1.32804e-11 1.17114e-10)
(2.80987e-10 -2.56021e-11 1.33792e-10)
(-1.21506e-10 2.09882e-11 2.76018e-10)
(2.69473e-10 -1.45586e-11 8.93176e-11)
(2.56006e-10 3.11192e-12 9.72416e-11)
(2.11517e-10 5.28171e-11 1.28028e-10)
(-8.84768e-11 -2.71506e-11 1.8209e-10)
(-7.26629e-11 -2.81735e-11 1.82043e-10)
(-7.55365e-11 -2.60215e-11 1.82061e-10)
(-7.10241e-11 -2.34299e-11 1.83143e-10)
(1.35001e-10 -3.19896e-11 6.9655e-11)
(-1.47429e-10 -1.87416e-11 2.21249e-10)
(1.98182e-10 5.0215e-11 2.04544e-10)
(-5.15683e-11 9.66887e-11 3.56165e-10)
(-1.31522e-10 -3.2398e-11 2.12678e-10)
(-1.6213e-10 1.16472e-10 4.72437e-10)
(1.00217e-10 -7.87981e-12 8.004e-11)
(1.78819e-10 2.89203e-12 2.13027e-10)
(-1.29886e-10 -2.46018e-11 2.05833e-10)
(1.36156e-10 2.7943e-12 9.4804e-11)
(1.89291e-10 -2.27686e-11 1.87096e-10)
(-1.8956e-10 6.43905e-11 4.58829e-10)
(2.20984e-10 2.24391e-11 1.06958e-10)
(2.36883e-10 1.7633e-11 1.05091e-10)
(2.75045e-10 -1.14627e-11 1.18356e-10)
(2.77761e-10 -2.34667e-11 1.372e-10)
(-1.52677e-10 4.42165e-11 4.31538e-10)
(2.71364e-10 -1.72767e-11 8.93752e-11)
(2.515e-10 1.93525e-12 9.44295e-11)
(2.03151e-10 4.45189e-11 1.45402e-10)
(-9.84574e-11 -1.81971e-11 1.57814e-10)
(-7.0059e-11 -2.36603e-11 1.54179e-10)
(-6.42149e-11 -1.78041e-11 1.5718e-10)
(1.4537e-10 -3.60445e-11 7.61622e-11)
(2.01088e-10 4.005e-11 2.31607e-10)
(8.46553e-11 -1.84171e-11 6.90193e-11)
(1.91008e-10 2.64834e-11 2.30967e-10)
(2.30176e-10 2.49167e-11 1.08381e-10)
(2.53489e-10 2.16597e-11 1.16781e-10)
(2.62444e-10 -1.92528e-11 1.5463e-10)
(-1.02403e-10 1.93255e-11 2.36414e-10)
(-1.42997e-10 4.06186e-11 4.35559e-10)
(2.71926e-10 -1.61126e-11 9.53488e-11)
(2.44441e-10 2.71416e-12 1.10824e-10)
(2.01405e-10 3.83464e-11 1.55863e-10)
(-1.0431e-10 -8.71449e-12 1.36073e-10)
(-5.43222e-11 -1.35666e-11 1.35609e-10)
(1.50682e-10 -4.11297e-11 7.68696e-11)
(1.99974e-10 4.70333e-11 1.87297e-10)
(-9.00804e-12 3.98199e-11 1.82669e-10)
(-1.53272e-10 -1.50191e-11 2.20417e-10)
(9.42002e-11 -2.76404e-11 6.90115e-11)
(-1.49522e-10 -2.14501e-11 2.30292e-10)
(-4.47755e-11 2.25912e-10 3.86831e-10)
(1.65436e-10 1.72508e-11 1.05394e-10)
(2.49768e-10 2.89157e-11 1.28186e-10)
(2.75456e-10 2.31864e-11 1.46747e-10)
(2.42577e-10 -8.57443e-12 1.97729e-10)
(-1.37581e-10 3.5188e-11 4.4276e-10)
(2.66101e-10 -2.11935e-11 1.19064e-10)
(2.22724e-10 -5.99384e-12 1.18287e-10)
(1.96654e-10 9.72523e-12 1.26442e-10)
(1.84205e-10 3.62438e-11 1.48547e-10)
(-1.20738e-10 3.07877e-12 1.17771e-10)
(-2.8489e-11 -1.85023e-12 1.26911e-10)
(1.92038e-10 4.79892e-11 1.80359e-10)
(-1.48905e-10 5.95629e-12 1.66948e-10)
(8.8874e-11 1.38658e-10 1.99252e-10)
(-1.61608e-10 -2.05486e-11 2.41089e-10)