/*--------------------------------*- C++ -*----------------------------------*\
  =========                 |
  \\      /  F ield         | OpenFOAM: The Open Source CFD Toolbox
   \\    /   O peration     | Website:  https://openfoam.org
    \\  /    A nd           | Version:  7
     \\/     M anipulation  |
\*---------------------------------------------------------------------------*/
FoamFile
{
    version     2.0;
    format      ascii;
    class       volScalarField;
    location    "10";
    object      p;
}
// * * * * * * * * * * * * * * * * * * * * * * * * * * * * * * * * * * * * * //

dimensions      [0 2 -2 0 0 0 0];

internalField   nonuniform List<scalar> 
382612
(
0.002079
0.001832
0.00199455
0.00199759
0.00173629
0.00220507
0.00212054
0.00201529
0.0018457
0.00168062
0.00187932
0.00186702
0.00180828
0.00183493
0.00195107
0.00207044
0.00184475
0.00198497
0.0020194
0.00203906
0.00205767
0.00208171
0.00210568
0.00211281
0.00209432
0.00207127
0.00204846
0.00245001
0.00249364
0.00253055
0.00256121
0.00235207
0.00234587
0.00233732
0.00232182
0.00223743
0.00195272
0.00204126
0.00210104
0.00213113
0.00215557
0.00217717
0.00209103
0.00207558
0.00205506
0.00202888
0.00194584
0.0019598
0.0019796
0.00199587
0.00215587
0.0021407
0.00212235
0.00210246
0.00207747
0.0019179
0.00197111
0.00205513
0.00211609
0.00200445
0.00207643
0.00194788
0.00196397
0.00261016
0.00201134
0.00185979
0.00211905
0.00232385
0.00242481
0.0025531
0.00257006
0.00257224
0.00257327
0.0027055
0.00269616
0.0026838
0.00265975
0.0025565
0.00235922
0.00245912
0.00249814
0.00252452
0.00254312
0.00287227
0.0028795
0.00288796
0.00287327
0.00272542
0.00211409
0.00223631
0.00226626
0.00228075
0.00229034
0.00246518
0.00247937
0.00249684
0.0024991
0.00243553
0.00201011
0.00208056
0.00210035
0.00211292
0.00212639
0.00214173
0.0020171
0.0020102
0.00200216
0.00199913
0.00180909
0.00183756
0.00185817
0.00187299
0.00212347
0.00210587
0.00208601
0.00206607
0.00204009
0.00169959
0.00181953
0.00185114
0.00186536
0.00187374
0.00203551
0.00201836
0.00199943
0.00197742
0.00191174
0.00165836
0.00184299
0.00196806
0.00198994
0.00199827
0.00200092
0.00220807
0.00221688
0.00222917
0.00224227
0.00235674
0.00233597
0.0022044
0.00217298
0.00215396
0.00214038
0.00189626
0.00188663
0.00187535
0.00186991
0.00198561
0.00199792
0.00200854
0.00201526
0.00200754
0.0020047
0.00199849
0.00199398
0.00203609
0.001956
0.00188681
0.00188656
0.00189289
0.0018971
0.00183024
0.00198363
0.00202056
0.001708
0.00187502
0.00181623
0.00209782
0.00230534
0.00178274
0.00180344
0.00213927
0.00174304
0.00181833
0.00179639
0.00172717
0.00172364
0.00173229
0.00173782
0.00223685
0.00224735
0.00226479
0.00228799
0.00228984
0.00196947
0.00192953
0.00191916
0.00191832
0.00191948
0.00223265
0.0022472
0.00227075
0.00230024
0.0023292
0.00200427
0.00211155
0.00211882
0.00211751
0.00211269
0.00210951
0.00193235
0.00193239
0.00193457
0.00194627
0.00165353
0.00165611
0.00166286
0.00166559
0.00198122
0.00198202
0.0019824
0.00198529
0.00202195
0.00167959
0.0016699
0.00202651
0.00192513
0.00161496
0.00184544
0.00198221
0.00169685
0.00197342
0.00193957
0.00166169
0.00159451
0.00190319
0.00190849
0.0017532
0.00157761
0.00181094
0.00195103
0.00200843
0.00197793
0.00197059
0.00183574
0.00166581
0.00200524
0.00193087
0.00199289
0.00202359
0.00194126
0.00199143
0.00211415
0.00208766
0.00189105
0.00193774
0.001974
0.00198448
0.0019974
0.00201103
0.002158
0.00215584
0.00214769
0.00210785
0.00237006
0.0023457
0.00232722
0.00231024
0.00272413
0.00271413
0.00270482
0.00268179
0.00254982
0.00247323
0.00241085
0.00241428
0.0024255
0.0024287
0.00243445
0.00209961
0.00210179
0.00209724
0.00208379
0.00209162
0.00254948
0.00251193
0.0025144
0.00252358
0.00253172
0.00235771
0.00234425
0.0023226
0.00230572
0.0023301
0.00254017
0.00249355
0.00249274
0.00250638
0.00251765
0.00271479
0.00271532
0.0027153
0.00270649
0.00263694
0.00255341
0.00267589
0.00270491
0.00271732
0.00272453
0.00313932
0.00314559
0.00315373
0.00313653
0.00296884
0.00220266
0.0022266
0.00224166
0.00226363
0.00228156
0.00235634
0.00234878
0.0023386
0.00231818
0.00222242
0.00204474
0.00212078
0.00215274
0.00217609
0.00219163
0.00252548
0.00253981
0.00256328
0.00257471
0.00249489
0.00185414
0.00184996
0.00185524
0.00187153
0.00188704
0.00195463
0.00195228
0.00196388
0.00197805
0.00198764
0.00193543
0.00192101
0.00190299
0.00189313
0.00188434
0.00243215
0.00243232
0.00241093
0.00238505
0.00236686
0.00187538
0.00186658
0.00185624
0.00185858
0.00190062
0.00237565
0.0023251
0.00229395
0.00226936
0.00225389
0.00175009
0.0017457
0.00174115
0.00175536
0.00185359
0.00205564
0.00199262
0.00198362
0.00198771
0.00199251
0.00222319
0.00223552
0.00225448
0.00228052
0.00232879
0.00195831
0.00186784
0.001856
0.00186267
0.00186906
0.00218894
0.00219947
0.00221471
0.00223173
0.00224017
0.00201178
0.00204335
0.00204548
0.0020464
0.00204342
0.00204059
0.00196779
0.00196695
0.00196651
0.00197174
0.00181534
0.00181274
0.00181435
0.00181526
0.00198358
0.00198695
0.00198999
0.00199219
0.00200021
0.00183465
0.00208826
0.00203462
0.00202205
0.0020181
0.00201532
0.00196804
0.002136
0.00220762
0.00216012
0.00214528
0.00213737
0.00213198
0.00199459
0.0019941
0.00199311
0.00199242
0.00203937
0.00203722
0.00203362
0.0020309
0.00205585
0.00205701
0.00205899
0.00206033
0.00204566
0.00204731
0.00205145
0.0020545
0.00222592
0.00223011
0.00223442
0.00223761
0.00225667
0.00206139
0.00206262
0.00208875
0.00215798
0.00201776
0.00206039
0.00202036
0.00191107
0.00179241
0.00197966
0.00198275
0.00182684
0.00215151
0.0021066
0.00207993
0.0021237
0.00200168
0.00204166
0.00211673
0.00219735
0.00219498
0.00229299
0.00228024
0.00224685
0.00224131
0.00224274
0.00224486
0.00233274
0.00232975
0.00232554
0.00232056
0.00231771
0.0023668
0.00237527
0.00237798
0.00238079
0.0023841
0.00231383
0.00231392
0.00231333
0.00230944
0.00230357
0.0021348
0.00207651
0.00208555
0.0020881
0.00208802
0.00208819
0.00215059
0.00214341
0.00213435
0.00212879
0.00208202
0.00208635
0.00209165
0.00209565
0.0020608
0.00206162
0.00206287
0.00206215
0.00205724
0.00208174
0.00227351
0.00226133
0.00226233
0.00226164
0.0022597
0.00227485
0.00235605
0.00230414
0.00229229
0.00229777
0.00230611
0.00231223
0.00252016
0.00251914
0.00251612
0.00250388
0.00246305
0.00248978
0.00251531
0.00252556
0.00253217
0.00253691
0.00245125
0.00244518
0.00243731
0.00242878
0.00242246
0.00234916
0.00238025
0.00239425
0.00240056
0.00240463
0.00221031
0.00219909
0.00218576
0.0021788
0.0021307
0.00213536
0.00213661
0.00213803
0.0021691
0.00216712
0.00216499
0.00216064
0.00221728
0.00221936
0.0022254
0.00223072
0.00245499
0.00244404
0.00242991
0.00241218
0.00237949
0.00221901
0.00214195
0.00212798
0.00224235
0.00216463
0.0021146
0.00208496
0.00215091
0.00201866
0.00203776
0.0020881
0.00214089
0.00218462
0.0020948
0.00211091
0.00222187
0.00218186
0.00211275
0.00229364
0.00236983
0.00246066
0.00249841
0.00244597
0.00245398
0.00246283
0.00247213
0.00247879
0.0025844
0.00257763
0.00256755
0.00255218
0.00252136
0.00254867
0.00257953
0.00259184
0.00259898
0.00260353
0.00251366
0.00250968
0.00250337
0.00249263
0.00247909
0.00246091
0.00247119
0.00247747
0.00248072
0.00248261
0.00242007
0.00241006
0.00239682
0.00238158
0.00234953
0.00221821
0.00223951
0.00223904
0.00223641
0.00223435
0.00230779
0.00229914
0.00228883
0.00227434
0.00222818
0.00215225
0.00210233
0.00211201
0.00211619
0.00211634
0.00211581
0.00213818
0.0021346
0.0021306
0.00213299
0.0021809
0.00218578
0.00219231
0.00219737
0.00213313
0.00213207
0.00213134
0.00213017
0.00212121
0.00217543
0.00215705
0.00209942
0.0020995
0.00214384
0.00210652
0.00207687
0.00208384
0.00211785
0.002213
0.00212648
0.00205221
0.00206019
0.00212863
0.00206718
0.00231084
0.0026261
0.0022026
0.0021042
0.00231212
0.00246391
0.00255352
0.00257104
0.002551
0.00253209
0.0024469
0.00248216
0.00249735
0.00250452
0.00250856
0.00258383
0.00257863
0.00257217
0.00256283
0.00253375
0.00253647
0.00256706
0.00257635
0.00258243
0.00258716
0.0025413
0.0025334
0.00252286
0.00251195
0.00249906
0.00253854
0.00256891
0.00258003
0.00258681
0.00259155
0.00254465
0.00254207
0.00253612
0.00252198
0.00248429
0.00236712
0.00236222
0.0023668
0.00237401
0.00237992
0.00243838
0.0024365
0.0024341
0.00242813
0.00240498
0.00229255
0.00229014
0.00229487
0.00230024
0.00230383
0.00218528
0.00218134
0.00217652
0.00217254
0.00216879
0.00210953
0.00208662
0.00209423
0.00209717
0.00209699
0.00209525
0.00211678
0.00211334
0.00210871
0.00210573
0.00209369
0.00209509
0.00209812
0.00210148
0.0020686
0.00206887
0.0020672
0.00206263
0.00206078
0.00210073
0.00218675
0.00217948
0.00218321
0.0021883
0.00219255
0.00213964
0.00213566
0.0021305
0.00212682
0.00213088
0.00205708
0.00204438
0.00205535
0.00205893
0.00206048
0.00206236
0.00208
0.00207482
0.00206852
0.00206337
0.00208466
0.00208516
0.00208623
0.00208725
0.00208287
0.00208082
0.00208073
0.00208034
0.00207324
0.00208345
0.00207778
0.00205193
0.00207265
0.00206784
0.00200379
0.00201576
0.00210099
0.00212617
0.00214873
0.00209021
0.00206268
0.00203181
0.00207866
0.00206899
0.00197364
0.00187113
0.00209904
0.00207011
0.0021294
0.00216731
0.00230097
0.00216794
0.00218033
0.00233596
0.0021057
0.002067
0.00214015
0.00228346
0.00220556
0.0021166
0.00210241
0.00223549
0.00227841
0.00213745
0.00209168
0.00210378
0.00233983
0.00233243
0.00238388
0.00238895
0.0023952
0.00238574
0.00238411
0.00238507
0.0023865
0.00238104
0.00237927
0.00237805
0.00237907
0.00237677
0.00246393
0.00248376
0.00248915
0.00249337
0.00249694
0.00241646
0.00241419
0.00240941
0.00239792
0.00237187
0.00230541
0.00230249
0.00230303
0.00230622
0.00230981
0.00240995
0.0024049
0.0023991
0.00239145
0.00236748
0.00237817
0.00240242
0.00241124
0.00241842
0.00242447
0.00251587
0.00251131
0.0025043
0.00248841
0.00244755
0.00236052
0.00237883
0.00239163
0.00239948
0.00240413
0.00249231
0.00248706
0.00248112
0.00247533
0.00245819
0.00245555
0.00246327
0.00246748
0.00247144
0.00247454
0.00239051
0.00238834
0.00238676
0.00238574
0.00237411
0.00232803
0.00231764
0.00231465
0.00231578
0.00231738
0.00223059
0.00222577
0.00221992
0.00221786
0.00223168
0.00225299
0.00226812
0.00227072
0.00227034
0.00227036
0.00216222
0.00216432
0.0021661
0.00216647
0.00216
0.00215848
0.00217296
0.00217258
0.00216904
0.00216573
0.00204387
0.00203988
0.00203548
0.00203472
0.00206611
0.00207116
0.00207399
0.00207654
0.00206671
0.00206281
0.00205794
0.00205072
0.00204285
0.00204234
0.00204021
0.00204496
0.00205007
0.0020538
0.00207113
0.00207172
0.00207188
0.00207209
0.00207188
0.00205402
0.00205045
0.00204961
0.00204954
0.00204927
0.00201432
0.00201062
0.00200555
0.00200172
0.0020213
0.00202598
0.00202983
0.00203371
0.00210502
0.0021013
0.00209947
0.00209723
0.00206808
0.0020655
0.00206735
0.00206993
0.00209158
0.0020958
0.00210177
0.00210835
0.0021139
0.00207964
0.00209108
0.00207233
0.00204671
0.00188741
0.00197044
0.00209287
0.0020394
0.00199447
0.00204061
0.00208062
0.00207986
0.00180636
0.00196235
0.00195072
0.00176822
0.00186002
0.00194336
0.00199956
0.00195584
0.00207403
0.00205133
0.00210384
0.00218952
0.00231442
0.0021478
0.0021001
0.00216541
0.0021603
0.0021157
0.00200823
0.00198621
0.00193652
0.00219767
0.00243074
0.00259533
0.00266863
0.00263554
0.00250037
0.00229976
0.00207346
0.00186621
0.0017337
0.00178274
0.00179541
0.00179448
0.00179152
0.00191449
0.00190731
0.00189952
0.00189495
0.00188988
0.00210231
0.00216796
0.00218409
0.00218526
0.0021839
0.00226691
0.0022582
0.0022482
0.00224125
0.00222527
0.00216172
0.00221217
0.00222478
0.00222988
0.00223322
0.00219593
0.00219483
0.00219049
0.00217778
0.00213342
0.00231912
0.00232797
0.00233166
0.00233932
0.00234652
0.00228062
0.00228023
0.00227673
0.00226296
0.00221671
0.00214237
0.00214987
0.00215505
0.00215856
0.00216001
0.00230118
0.0022974
0.00229467
0.00229665
0.00230281
0.00227249
0.00226552
0.00227039
0.00227654
0.00228101
0.0022744
0.00227279
0.00226896
0.00226173
0.00225612
0.00221053
0.00222765
0.00223406
0.00223556
0.00223547
0.00214612
0.00214383
0.00214104
0.00214057
0.00214625
0.00221472
0.00220326
0.00219686
0.00219344
0.00219194
0.00210858
0.0021041
0.00209948
0.00210135
0.00212865
0.00209786
0.00208508
0.00208705
0.00209122
0.00209407
0.00211799
0.00212275
0.00213056
0.00214001
0.00214259
0.00201943
0.00200647
0.00200847
0.00201125
0.00201283
0.00198204
0.00197976
0.00197628
0.00197467
0.001989
0.00200293
0.00199816
0.00199853
0.00199889
0.00199805
0.00203574
0.00203193
0.00202659
0.00202223
0.00202258
0.00197257
0.00200169
0.00201097
0.00202119
0.00203117
0.00203968
0.00201333
0.002006
0.00199511
0.00198286
0.00200355
0.00200448
0.00200678
0.00200852
0.00204562
0.00204355
0.00204146
0.00203727
0.00202856
0.00201331
0.00205825
0.00208312
0.0020736
0.00201568
0.0019199
0.00202699
0.00197741
0.00184154
0.00199348
0.00202717
0.00187775
0.00167327
0.00176724
0.00195093
0.00185743
0.0016467
0.00181513
0.00188154
0.00192834
0.00191487
0.00194099
0.00196616
0.00200248
0.00195393
0.00162715
0.00183968
0.00184925
0.0016381
0.0016204
0.00166549
0.00172513
0.00188565
0.00204952
0.00217005
0.00221714
0.00216717
0.00202529
0.00181478
0.00157957
0.00135855
0.00125361
0.00130388
0.0013111
0.00130641
0.00130097
0.00142161
0.00141533
0.00140927
0.00140641
0.00139905
0.00168024
0.00173074
0.00174097
0.00173825
0.00173333
0.00186237
0.00185459
0.00184614
0.00184273
0.00184183
0.00202316
0.00203007
0.00203433
0.00203963
0.00204372
0.00194337
0.00193841
0.00193443
0.00193775
0.00194197
0.00210265
0.00208106
0.00207638
0.00207982
0.00208408
0.00201
0.00200793
0.00200897
0.00201843
0.00202598
0.00212781
0.00209548
0.00208283
0.00208125
0.00208233
0.00208645
0.00208497
0.00208252
0.00208179
0.00209514
0.00223432
0.00223326
0.00222693
0.00222444
0.0022248
0.00217482
0.0021742
0.00217489
0.00218324
0.00221628
0.00214025
0.00213942
0.00213135
0.00212767
0.00212653
0.00211626
0.00211816
0.00212258
0.00213271
0.00214811
0.0020774
0.00206528
0.00206378
0.00206529
0.0020667
0.00211851
0.00211826
0.00211747
0.00211538
0.00210911
0.00214384
0.00210401
0.00215513
0.00214818
0.00207834
0.00207419
0.00207725
0.00207983
0.00208061
0.00201984
0.00201826
0.00201708
0.00202117
0.00204473
0.00199436
0.00198978
0.00199259
0.00199328
0.00199292
0.0019848
0.00198338
0.00198094
0.00197858
0.00198723
0.00198661
0.00199098
0.00199212
0.00199184
0.00199143
0.00195166
0.00195239
0.00195354
0.00195779
0.00197779
0.00214042
0.00213488
0.00212003
0.00210902
0.00210295
0.00207869
0.00208196
0.00208879
0.00210529
0.00215658
0.00206445
0.00208102
0.00207335
0.00207067
0.00206933
0.00207033
0.00201497
0.00201665
0.00202043
0.00203251
0.00195175
0.00196256
0.00196813
0.0019715
0.0021003
0.00209701
0.00209307
0.0020833
0.00205589
0.00192738
0.00198753
0.002123
0.00202282
0.00192316
0.0019088
0.00209024
0.00193277
0.00192456
0.00195622
0.00196706
0.00196888
0.00196808
0.00187939
0.00187891
0.00187725
0.00187607
0.0018835
0.00194316
0.0019777
0.00198115
0.00197947
0.00197719
0.00201838
0.00202567
0.00203205
0.00202708
0.00196959
0.00196174
0.00200973
0.00203294
0.00203985
0.0020448
0.00205108
0.00201083
0.00201331
0.00201397
0.0020063
0.00194019
0.00194803
0.00195767
0.00196418
0.00206743
0.00206077
0.00205258
0.00204065
0.00202344
0.00195575
0.00205159
0.00206142
0.00203232
0.00195474
0.00176576
0.00194139
0.00190241
0.00166168
0.00162323
0.00184828
0.00178427
0.00155088
0.00180265
0.00187575
0.001941
0.00198176
0.00183572
0.00185197
0.00190105
0.00187531
0.0018411
0.00193185
0.0019902
0.00192221
0.00205696
0.00204855
0.00198527
0.00193
0.00189224
0.00200474
0.00193273
0.00176879
0.0020239
0.00204826
0.00205149
0.0020746
0.00203819
0.00203523
0.00201155
0.00204655
0.00170148
0.00185817
0.0019085
0.00169402
0.00178419
0.00192645
0.00196899
0.00200067
0.00188627
0.00195481
0.00190081
0.0017864
0.00175241
0.00189006
0.00192537
0.00171193
0.00179857
0.00195711
0.0019666
0.00177894
0.00187655
0.0019944
0.00200389
0.0019082
0.00179811
0.00199185
0.00195056
0.00171604
0.00196272
0.00194996
0.00192109
0.00187321
0.00179544
0.00178575
0.00178886
0.00179059
0.0020159
0.00201643
0.00201731
0.00202485
0.00207195
0.00228703
0.00223487
0.00221573
0.00220603
0.00220125
0.00200602
0.002001
0.00199596
0.00200448
0.00207798
0.00224869
0.00222328
0.00221009
0.0022039
0.00220125
0.0021593
0.00215624
0.00215336
0.00215816
0.00220503
0.00213814
0.00211977
0.00200513
0.00195934
0.00190971
0.00190239
0.00190391
0.00190474
0.00209302
0.00209483
0.00209568
0.00209514
0.00211222
0.00228157
0.00224872
0.0022356
0.00223192
0.00223122
0.0021539
0.00214979
0.00214495
0.00214728
0.00218734
0.0023239
0.00231978
0.00231409
0.00231155
0.00231052
0.00223327
0.00223323
0.00223308
0.00223589
0.00226265
0.0022606
0.00223991
0.00215719
0.00210257
0.00202258
0.00199017
0.00198813
0.00198985
0.00199096
0.00216822
0.0021686
0.00217164
0.00218261
0.00219765
0.0022645
0.00225896
0.00225318
0.00225264
0.00225401
0.00228998
0.00228805
0.00228471
0.00227966
0.00227883
0.00231229
0.00232328
0.0023282
0.00232849
0.00232784
0.00234179
0.0024468
0.00240814
0.00228814
0.00212407
0.00201748
0.00204335
0.00205215
0.00205162
0.0020491
0.00218418
0.00217929
0.00217636
0.00218004
0.00218574
0.0022228
0.00223892
0.00224457
0.00225172
0.00225867
0.00214521
0.00214841
0.00214875
0.00213495
0.00208372
0.00188355
0.00186374
0.00186278
0.00186938
0.00187573
0.00173689
0.00174114
0.00174401
0.00173534
0.00170775
0.00146865
0.00145848
0.00145259
0.00145315
0.00145535
0.00145544
0.00145179
0.00144824
0.00144909
0.00145597
0.00120734
0.00120246
0.00120482
0.00121136
0.00121751
0.00118071
0.00118035
0.00118142
0.00118354
0.00118003
0.00101067
0.000998585
0.000999827
0.00100206
0.00100416
0.000919108
0.000913957
0.000911142
0.0009155
0.000941178
0.00116377
0.00117785
0.00118008
0.00117442
0.00116751
0.00130826
0.00130315
0.0012988
0.00130239
0.00132432
0.00154225
0.0015247
0.00152302
0.00152695
0.00153165
0.00171548
0.00172072
0.0017253
0.00172151
0.00169622
0.0018057
0.00182943
0.00183556
0.00183583
0.00183563
0.00174765
0.0017504
0.00175169
0.00174849
0.00175555
0.00182717
0.00180514
0.00180646
0.00181103
0.00181504
0.00192665
0.00192701
0.00192684
0.00192356
0.0019153
0.0019045
0.00188482
0.00188212
0.00188197
0.0018811
0.00209612
0.00209797
0.00210429
0.00211433
0.0021231
0.00187303
0.00184847
0.00184812
0.00185163
0.00185382
0.00191486
0.00191557
0.00191637
0.00191564
0.00191188
0.00191483
0.0018895
0.00188445
0.0018834
0.00188297
0.00203006
0.00203517
0.00204527
0.00206232
0.00207526
0.00209258
0.00206002
0.00204696
0.00204128
0.0020386
0.00184471
0.00184212
0.0018381
0.00183496
0.00184661
0.00187223
0.0018594
0.00186057
0.00186259
0.00186357
0.00210481
0.00211468
0.00213186
0.00215579
0.00215884
0.00222156
0.00223857
0.00221951
0.00220284
0.00219289
0.00220834
0.00221095
0.00221773
0.00223032
0.00222888
0.00231376
0.00230097
0.00230039
0.00229976
0.00230135
0.0020784
0.00207396
0.00206773
0.00206333
0.00206435
0.00193126
0.00194419
0.00198602
0.00200337
0.00201908
0.00203208
0.0020672
0.00206426
0.00205864
0.00203569
0.00215626
0.00215591
0.00215633
0.00215784
0.0021395
0.00213115
0.00212519
0.00212308
0.00213814
0.00214632
0.00205904
0.00210797
0.00198585
0.00188311
0.00213373
0.0020734
0.00201672
0.00194487
0.0017956
0.00191624
0.00190091
0.00180701
0.00185413
0.00184386
0.00193546
0.0019657
0.00191106
0.00195294
0.00197859
0.00191997
0.00183835
0.00194943
0.00191416
0.00177301
0.00180828
0.00190089
0.0018561
0.00180132
0.00191262
0.001639
0.00145702
0.00129922
0.00121553
0.00119156
0.00118407
0.001156
0.00109898
0.00102962
0.000952868
0.000872848
0.000785732
0.000694283
0.000599656
0.000683437
0.000671992
0.000670991
0.000673021
0.000674773
0.000803477
0.000814408
0.000826262
0.000833298
0.00082952
0.000888092
0.000889697
0.000887152
0.00088187
0.000876876
0.000828725
0.000838483
0.000848433
0.00085432
0.000864844
0.00109644
0.00105107
0.00103951
0.0010402
0.0010438
0.00118731
0.00119567
0.00120309
0.00120286
0.00120531
0.00148475
0.00146173
0.00144944
0.00144816
0.00144905
0.00164666
0.00164514
0.00164762
0.00166208
0.00170176
0.00153691
0.00154252
0.00154277
0.00154148
0.00153954
0.00150108
0.00150523
0.00150776
0.00150934
0.00153103
0.00185718
0.00183609
0.00181833
0.00181158
0.00180988
0.00188169
0.00188249
0.00188695
0.00190401
0.00196067
0.0016663
0.00167351
0.00167466
0.0016743
0.0016736
0.00170297
0.00170507
0.00170784
0.00171275
0.00173357
0.00196706
0.0019648
0.00194808
0.00193729
0.00193203
0.00191274
0.00191553
0.00192229
0.00193918
0.00198592
0.0017102
0.00170297
0.00170427
0.00170657
0.00170727
0.00177798
0.00177867
0.00177936
0.00177876
0.00177759
0.00185602
0.00183405
0.0018277
0.00182452
0.00182246
0.00204661
0.00205701
0.00207388
0.0020938
0.00208759
0.00176436
0.00176961
0.00177645
0.00177985
0.00178135
0.00182624
0.00182304
0.00181547
0.00180026
0.00178169
0.00180249
0.00182156
0.00183997
0.00185211
0.00185861
0.00195445
0.00194728
0.00193496
0.00191323
0.00187816
0.00178751
0.00183419
0.00185793
0.00186976
0.00187575
0.00213693
0.00213154
0.00212285
0.00210051
0.0020259
0.00219526
0.00223154
0.00223121
0.00222844
0.00222792
0.00210807
0.00211163
0.00211449
0.00210798
0.00203413
0.00204195
0.00205424
0.00206602
0.00212712
0.00211128
0.00209378
0.00207831
0.00208628
0.00210169
0.00210565
0.00210665
0.00234131
0.00233763
0.00233361
0.0023171
0.00221153
0.00200369
0.00206793
0.00206192
0.00191264
0.00188819
0.00206865
0.00205992
0.00188095
0.00195139
0.00211344
0.00214553
0.00215941
0.00216617
0.00217304
0.00204825
0.00203678
0.00201803
0.00199682
0.00228736
0.00231121
0.00231167
0.00231197
0.00219527
0.00218981
0.00218119
0.00216527
0.00214272
0.00229885
0.00229521
0.00229599
0.0022893
0.00228543
0.00230273
0.00229812
0.0022925
0.0022807
0.00233823
0.00204296
0.00205968
0.00206338
0.00206823
0.00207597
0.00208344
0.00217129
0.00217271
0.00217263
0.00215661
0.00206711
0.00209364
0.00210394
0.00211149
0.00205414
0.00204562
0.00203617
0.00202586
0.00199525
0.00190201
0.00183646
0.00205711
0.00199621
0.00200932
0.00200993
0.00193084
0.00191678
0.00191192
0.00207596
0.00199379
0.00189938
0.00191717
0.0019739
0.00189397
0.00196268
0.00194405
0.00191767
0.00164473
0.00127833
0.000905421
0.00063774
0.000538185
0.000598099
0.000731407
0.000834348
0.000843021
0.000759435
0.000630251
0.000549235
0.000481274
0.000448805
0.000392758
0.000414531
0.000400722
0.000393522
0.000386876
0.000381436
0.000448307
0.00044934
0.000452958
0.00046368
0.00049741
0.00054098
0.000528951
0.000522687
0.000514192
0.000505581
0.000650219
0.000652805
0.000659123
0.000675063
0.000702718
0.000902217
0.000858526
0.000838001
0.000829237
0.000825004
0.000936672
0.000944156
0.000950251
0.000952471
0.00096521
0.00129773
0.00126265
0.00124277
0.00123641
0.00123596
0.00143529
0.00143799
0.00144487
0.00146643
0.00153705
0.00127916
0.00128671
0.00128683
0.00128593
0.00128544
0.00132069
0.00132503
0.0013283
0.00133154
0.0013542
0.00172488
0.00170739
0.00168573
0.0016723
0.00166626
0.00172826
0.00173099
0.00173793
0.00175695
0.00181604
0.00145374
0.00146376
0.00146579
0.00146622
0.00146556
0.00157015
0.00157303
0.0015767
0.00158223
0.00159991
0.00185469
0.00185453
0.00183519
0.00181999
0.00181202
0.00183255
0.00184001
0.00185444
0.00187692
0.00188838
0.00197286
0.00194364
0.00192382
0.00191224
0.00190645
0.00161224
0.00161055
0.00160428
0.00159156
0.00158307
0.00166243
0.00167066
0.00168095
0.00168749
0.00169006
0.00181568
0.00181281
0.00180898
0.00180447
0.00178966
0.00190309
0.00193099
0.00193634
0.00193764
0.00193819
0.00206143
0.00206078
0.00205912
0.00205237
0.00201901
0.00199717
0.00202582
0.00203215
0.00203417
0.00203435
0.00207288
0.00206444
0.00205007
0.00202535
0.00197996
0.00205713
0.0020627
0.00207294
0.00208128
0.00208635
0.00222978
0.00223484
0.00224226
0.00224263
0.00218653
0.00209404
0.00218455
0.0021944
0.00219266
0.00219084
0.00210251
0.00209825
0.00209213
0.00208282
0.0020324
0.00214354
0.00214789
0.00214476
0.00214329
0.00214606
0.00212678
0.00198602
0.00200822
0.00197262
0.00206724
0.00220021
0.00183632
0.00200655
0.00221329
0.00186436
0.00220607
0.00293279
0.00205816
0.00218695
0.00227307
0.00255841
0.00202469
0.00164714
0.00114075
0.000715326
0.00043542
0.000372827
0.000470532
0.00062197
0.000719669
0.000702248
0.000601366
0.000485571
0.00039697
0.000366927
0.000327399
0.000428388
0.000432481
0.000429359
0.000426047
0.000424076
0.000325491
0.000331967
0.000336266
0.000336828
0.000342854
0.000588652
0.000581191
0.000563682
0.000549243
0.000540277
0.000780841
0.000790301
0.000802752
0.00081473
0.000831715
0.000766739
0.000750081
0.000747979
0.000743897
0.000738504
0.0011335
0.00114429
0.0011635
0.00119191
0.0012203
0.00138174
0.00134846
0.00133263
0.0013206
0.00131245
0.00124558
0.00124914
0.0012526
0.00125668
0.00127695
0.00165788
0.00163719
0.00161129
0.00159412
0.00158507
0.00165507
0.00166098
0.00167064
0.0016842
0.0017031
0.00133318
0.00132048
0.00132443
0.00132981
0.00133302
0.00145851
0.00145834
0.00145799
0.00145839
0.00147037
0.00154978
0.00155337
0.00155218
0.00154919
0.00154662
0.00164215
0.00165044
0.00165928
0.00165869
0.00162379
0.00168606
0.00172122
0.0017179
0.00170624
0.00169479
0.00192552
0.00193298
0.00194436
0.00194787
0.00189496
0.00191304
0.00194296
0.0019466
0.00194765
0.00194767
0.00197046
0.00196915
0.00196468
0.00195361
0.00190543
0.00204769
0.00209336
0.00210578
0.00211184
0.00211552
0.00220051
0.00220182
0.00220289
0.00219826
0.00215618
0.00222696
0.00224825
0.00225341
0.00225855
0.00226276
0.00234275
0.00234853
0.00235696
0.00235291
0.00226775
0.00207857
0.00204659
0.00205708
0.0020779
0.00209289
0.00239212
0.00238837
0.00238315
0.00237456
0.00232887
0.00228658
0.00227136
0.00227119
0.00227577
0.00227914
0.00225202
0.00225788
0.00226476
0.00225731
0.00218191
0.00202821
0.00214245
0.00215255
0.00214572
0.00213897
0.0022715
0.00227789
0.00228909
0.00228324
0.00215158
0.00189722
0.00192309
0.00193522
0.00194364
0.00194873
0.00208875
0.00209256
0.00209484
0.00208513
0.00204574
0.0020432
0.00194447
0.00193786
0.00204499
0.00206087
0.00192733
0.00198508
0.00199534
0.0019993
0.00200074
0.00206891
0.00207049
0.00207242
0.00207103
0.00201243
0.00197888
0.00200587
0.00195373
0.0019204
0.00191256
0.00194596
0.00196149
0.00196656
0.00190643
0.00196074
0.00199753
0.00197554
0.00197536
0.00218766
0.00207066
0.00201919
0.00207163
0.0020205
0.00199516
0.00195794
0.00187979
0.00190687
0.00197226
0.00202086
0.00202546
0.00206384
0.0020427
0.00200142
0.00198414
0.00197492
0.0019854
0.00204358
0.00210235
0.0020519
0.00202333
0.00198423
0.00193864
0.00191957
0.00198262
0.00201406
0.00200706
0.00196049
0.00198676
0.00198838
0.00194172
0.00193666
0.00197886
0.00194996
0.00192377
0.00191687
0.00195271
0.00194853
0.00188764
0.00188735
0.00197506
0.00192069
0.001865
0.00193285
0.00194392
0.00198023
0.00202039
0.00199436
0.00196269
0.00193616
0.00196414
0.00198749
0.00192872
0.00195418
0.0020008
0.00194839
0.00195604
0.00194292
0.00195141
0.00204253
0.00196057
0.00198269
0.00207984
0.00187278
0.00184229
0.00165938
0.00144153
0.00117729
0.000925206
0.000838366
0.000881706
0.00117239
0.00126162
0.00153069
0.00165958
0.00168141
0.00169267
0.00170116
0.0019885
0.00200375
0.00202095
0.00202991
0.0020043
0.00145666
0.00150265
0.0015105
0.00151101
0.00150789
0.00212976
0.00214953
0.00217498
0.00218906
0.00217578
0.00159267
0.00154361
0.00153849
0.00154135
0.00154201
0.00216837
0.00218814
0.00221773
0.00224966
0.00224312
0.00224743
0.00229275
0.00229227
0.00228019
0.002269
0.00167627
0.0016782
0.00167618
0.00167126
0.00166112
0.00164017
0.00166607
0.00166252
0.00165894
0.0016559
0.0020291
0.00203814
0.00205105
0.00207224
0.00215551
0.00169877
0.00164282
0.00163783
0.00163996
0.00163926
0.00178578
0.00178784
0.00179124
0.00180104
0.00184598
0.00219986
0.0021156
0.00208798
0.00207605
0.00206919
0.00199336
0.00200085
0.00201515
0.00204267
0.00207622
0.00214989
0.00207047
0.00204897
0.00204203
0.00203909
0.00199967
0.00200332
0.00201345
0.00203663
0.00207929
0.00205077
0.0020081
0.0020026
0.00200476
0.00200746
0.00175839
0.00171691
0.00171234
0.00171252
0.00171131
0.00178413
0.00178477
0.00178432
0.00178666
0.00181267
0.00206091
0.00203015
0.00200993
0.00200109
0.00199859
0.00197734
0.00197466
0.00197465
0.00198896
0.00205621
0.00207952
0.00207823
0.00208179
0.00208217
0.00208115
0.00212224
0.00212213
0.0021217
0.00211889
0.00211063
0.00220375
0.00211732
0.00195151
0.0017359
0.00163167
0.00162748
0.00162994
0.0016272
0.00162274
0.00184149
0.0018424
0.00184614
0.00186284
0.00189773
0.00189636
0.00187774
0.00187043
0.00187131
0.00187373
0.00168446
0.00168981
0.00169477
0.00169105
0.0016782
0.00150435
0.00148398
0.00147216
0.00146829
0.00146726
0.00122968
0.00122944
0.00123291
0.00124761
0.00127807
0.00123326
0.00121573
0.00120979
0.00121007
0.00121157
0.00107389
0.00108277
0.00109189
0.00109456
0.0010893
0.00114276
0.00117512
0.00117483
0.00116385
0.00115284
0.000815481
0.000812561
0.00081091
0.000815116
0.000832292
0.00084427
0.000825243
0.000825519
0.000830225
0.000833908
0.000786427
0.000788513
0.000791541
0.000796872
0.000812916
0.000831948
0.000841479
0.000834921
0.000824027
0.000815195
0.000587824
0.000585601
0.000583576
0.000585093
0.000597893
0.000571912
0.000537514
0.000531826
0.000532425
0.000533585
0.000534205
0.000537509
0.000541557
0.000546332
0.000559273
0.000550007
0.000541827
0.000534049
0.000524969
0.000517185
0.000564852
0.000565073
0.000567421
0.000577278
0.000609376
0.000735089
0.00070231
0.000691817
0.000689913
0.000689801
0.000604759
0.000529859
0.000565261
0.000547563
0.000540072
0.000534714
0.000530708
0.000450505
0.000444654
0.000470999
0.000473899
0.00047078
0.000465128
0.000460061
0.000453978
0.000452312
0.000451999
0.000457509
0.000485987
0.000442358
0.000439608
0.000437005
0.000432876
0.0004292
0.000370497
0.000370096
0.000370161
0.000372461
0.000383569
0.000331907
0.000321959
0.000319383
0.00032096
0.000322833
0.000364159
0.000366144
0.000369948
0.000380067
0.000406489
0.000431158
0.000421811
0.000417892
0.00041139
0.000404828
0.000547111
0.000550954
0.00055952
0.000576384
0.000601438
0.000814218
0.000767459
0.000749359
0.000739743