/*--------------------------------*- C++ -*----------------------------------*\
  =========                 |
  \\      /  F ield         | OpenFOAM: The Open Source CFD Toolbox
   \\    /   O peration     | Website:  https://openfoam.org
    \\  /    A nd           | Version:  7
     \\/     M anipulation  |
\*---------------------------------------------------------------------------*/
FoamFile
{
    version     2.0;
    format      ascii;
    class       volVectorField;
    location    "10";
    object      wallShearStress;
}
// * * * * * * * * * * * * * * * * * * * * * * * * * * * * * * * * * * * * * //

dimensions      [0 2 -2 0 0 0 0];

internalField   uniform (0 0 0);

boundaryField
{
    outlet1
    {
        type            calculated;
        value           uniform (0 0 0);
    }
    Wall
    {
        type            calculated;
        value           nonuniform List<vector> 
40276
(
(0.000427517 4.94444e-05 0.00016786)
(-0.000186845 -8.62565e-06 0.000415344)
(-0.000190578 -7.86789e-06 0.000407297)
(9.01055e-05 -4.44329e-06 0.000155845)
(7.80746e-05 2.56437e-05 0.000155429)
(8.34379e-05 5.88469e-05 0.000161905)
(9.80566e-05 4.09595e-05 0.000169845)
(0.000130272 3.72431e-05 0.000181212)
(0.000100762 2.64215e-05 0.000163056)
(9.80879e-05 6.12985e-06 0.000168761)
(0.00038416 3.80661e-05 0.000406849)
(0.00046433 1.54167e-05 0.000440987)
(0.000585208 3.96153e-05 0.000940673)
(0.000562933 3.76731e-05 0.000870979)
(0.000487646 -1.57959e-05 0.000334358)
(0.000435839 1.50036e-06 0.000363518)
(0.000394132 2.02401e-05 5.62256e-05)
(0.000352132 2.33408e-05 2.28587e-05)
(-0.000113787 -1.18029e-05 -0.000175828)
(-0.000123098 -3.7637e-05 -0.000196049)
(-0.00015595 3.9372e-05 0.000211052)
(-0.000187068 4.44272e-05 0.000197883)
(-0.000119969 3.22325e-05 6.76219e-05)
(-0.000138821 2.96402e-05 6.3933e-05)
(-9.99783e-05 2.36908e-05 4.31041e-05)
(-0.000112217 2.47354e-05 3.73273e-05)
(-0.00012396 4.10751e-05 2.19626e-05)
(-0.000121413 4.14956e-05 1.6075e-05)
(-0.000182242 5.88475e-05 3.29251e-05)
(-0.00016361 5.05061e-05 2.39945e-05)
(-0.000120412 3.9243e-05 7.08065e-05)
(-0.000134716 4.70305e-05 7.81744e-05)
(-5.25565e-05 -3.17143e-06 0.00015963)
(-4.67999e-05 -4.85908e-06 0.000148359)
(-6.29294e-05 1.02858e-05 8.14285e-06)
(-6.17674e-05 1.16826e-05 7.68542e-06)
(0.000565353 6.6736e-05 0.000217817)
(0.000614704 4.89408e-05 0.000241916)
(0.00105348 0.000255053 0.000407764)
(0.00119017 0.00032659 0.000428728)
(0.00098972 6.43633e-05 0.000168547)
(0.000951552 3.68983e-05 0.000195879)
(-5.07951e-05 -1.4148e-05 -0.000380972)
(-3.09932e-05 -1.06926e-05 -0.000344709)
(-5.35551e-05 -2.17233e-06 -0.000346514)
(-4.50424e-05 -6.06848e-06 -0.000284066)
(-7.31743e-05 -4.13657e-07 -0.000292107)
(-5.58964e-05 -3.14203e-06 -0.000235129)
(-6.43254e-05 -8.34149e-07 -0.000201752)
(-6.23786e-05 9.94946e-07 -0.000167057)
(-5.09927e-05 -1.12145e-06 -0.000136223)
(-6.27425e-05 1.2874e-06 -0.00014297)
(-5.40046e-05 -1.65996e-07 -0.000113397)
(-5.70872e-05 2.09986e-06 -0.000114743)
(0.000441878 8.14912e-05 0.000262216)
(0.000460173 9.55305e-05 0.000231384)
(-1.65767e-05 1.29007e-05 0.000129894)
(6.41366e-05 2.20388e-05 0.000191138)
(-9.40802e-06 8.29564e-06 0.000132465)
(-0.000446121 -0.00015175 -0.000426886)
(-0.000475434 -0.00012648 -0.000437655)
(1.9068e-05 3.45795e-05 0.00029163)
(-1.27954e-05 -1.18063e-05 0.000225411)
(1.06998e-05 -1.07485e-06 -4.7491e-05)
(1.35305e-05 2.91573e-06 -4.45322e-05)
(6.71854e-06 -1.91322e-08 -4.34559e-05)
(2.04803e-06 -2.73806e-06 -4.19186e-05)
(1.17124e-05 5.30189e-08 -4.4431e-05)
(-0.000115005 -1.90153e-05 -0.000104675)
(-0.000126778 -8.69269e-06 -0.000113631)
(-5.14446e-05 4.08467e-06 -9.29963e-05)
(-5.2417e-05 1.07894e-07 -9.47355e-05)
(-1.70679e-05 1.27651e-06 -1.71729e-05)
(-1.70488e-05 1.29438e-06 -1.70131e-05)
(-1.54564e-05 1.34733e-06 -1.67492e-05)
(-1.45986e-05 1.64652e-06 -1.6134e-05)
(-1.66614e-05 7.5238e-07 -1.65683e-05)
(2.42925e-05 -1.81205e-06 -5.03135e-06)
(2.10801e-05 -1.85081e-06 -8.94567e-06)
(-1.26125e-06 4.4423e-06 3.19349e-07)
(-5.52575e-07 -2.33779e-07 2.38081e-07)
(7.46272e-06 -1.18082e-06 -3.86671e-07)
(1.83101e-05 -5.78544e-08 1.25772e-05)
(1.77434e-05 2.05543e-07 1.29028e-05)
(2.84424e-05 -1.27461e-06 2.00237e-05)
(5.86448e-06 5.08154e-07 -3.86051e-05)
(1.41767e-06 -1.89885e-06 -3.69182e-05)
(4.65312e-06 9.78942e-07 -3.38736e-05)
(2.567e-05 -1.51782e-06 1.85577e-05)
(2.44631e-05 -1.07853e-06 1.7624e-05)
(2.09652e-05 -5.2673e-07 1.55844e-05)
(-4.40421e-05 -4.50598e-06 -3.9861e-05)
(3.82267e-07 -1.18687e-06 -3.24697e-05)
(3.47058e-06 1.29524e-06 -2.98435e-05)
(-3.54639e-07 -5.99107e-07 -2.87588e-05)
(-1.0594e-06 -3.43632e-07 -2.53255e-05)
(-1.69783e-06 5.26523e-08 -2.23466e-05)
(-2.54867e-06 2.18816e-07 -2.03014e-05)
(-5.95953e-06 -3.3649e-07 -1.64292e-05)
(-6.62733e-06 -1.26841e-07 -1.55206e-05)
(-7.46783e-06 8.4688e-10 -1.51392e-05)
(-1.0436e-05 -3.00354e-07 -1.50807e-05)
(-1.0645e-05 -2.19835e-07 -1.5441e-05)
(-4.94579e-05 -9.56067e-07 -4.3387e-05)
(-1.09092e-05 -3.06647e-08 -1.62601e-05)
(-1.88412e-05 -3.41025e-06 -2.29973e-05)
(-1.57117e-05 -3.39857e-06 -1.83868e-05)
(-1.0743e-05 -1.28762e-07 -1.68069e-05)
(-1.06424e-05 3.77504e-08 -1.7808e-05)
(-1.0257e-05 -5.77495e-07 -1.81187e-05)
(-1.04392e-05 4.07359e-08 -1.92397e-05)
(-9.89363e-06 -6.3723e-07 -1.99837e-05)
(-9.29282e-06 -2.84023e-07 -2.03897e-05)
(-9.05295e-06 -1.08727e-06 -2.19151e-05)
(-8.70931e-06 -1.71506e-06 -2.05375e-05)
(4.07043e-06 -9.01503e-07 -2.65448e-05)
(3.95975e-06 -2.9005e-06 -2.78651e-05)
(2.52203e-06 -2.91116e-06 -2.62864e-05)
(-0.000277216 -6.29407e-05 0.00048674)
(-0.00028029 -6.14432e-05 0.000441332)
(-1.53731e-05 -1.24469e-06 5.36911e-06)
(-1.26771e-05 -1.41213e-06 6.50282e-06)
(-4.20701e-05 -1.74508e-06 1.60241e-05)
(-3.65e-05 -3.08825e-06 1.49249e-05)
(-4.3921e-06 -8.05298e-06 -5.43461e-06)
(-2.08091e-06 -7.9306e-06 -2.67375e-06)
(-0.000127306 2.51747e-05 0.000183795)
(-0.000110558 3.38789e-05 0.00015634)
(-0.000160149 -1.79373e-05 0.000274208)
(-0.000139926 -2.40044e-05 0.000236036)
(-0.000102762 -6.25671e-06 0.000172539)
(-8.99054e-05 -9.30617e-06 0.000148497)
(-0.000155987 9.3491e-05 0.00046576)
(-0.000216067 0.00016921 0.000650623)
(7.22602e-06 -1.17964e-05 0.000188373)
(-1.44794e-06 -4.54012e-06 0.000159198)
(-0.000102194 2.75914e-05 0.000192771)
(-5.58642e-05 1.36242e-06 0.000167215)
(-0.000179706 -5.75603e-05 0.000489732)
(-0.00017928 -4.07833e-05 0.000490471)
(-0.000179145 -4.55823e-05 0.000524843)
(-0.000194741 -2.18573e-05 0.000526284)
(-0.000559468 1.7065e-06 -0.000151311)
(-0.000641988 2.42316e-06 -0.000183469)
(-2.27552e-05 -7.96789e-05 9.95783e-06)
(-2.65493e-05 -7.89429e-05 1.19239e-05)
(-2.14344e-05 -4.38642e-05 6.54831e-05)
(-2.5199e-05 -5.36523e-05 8.1822e-05)
(-2.90407e-05 -5.25491e-05 6.6083e-05)
(-2.321e-05 -4.04538e-05 5.37452e-05)
(-1.54684e-05 -8.61463e-05 8.48785e-06)
(-1.98957e-05 -9.83539e-05 6.53327e-06)
(-2.34944e-05 -8.34772e-05 8.81935e-06)
(-2.18821e-05 -8.64849e-05 9.21274e-06)
(-2.31358e-05 -0.000128636 -1.56103e-05)
(-1.99741e-05 -0.000111411 -1.41257e-05)
(-7.64282e-06 -5.66218e-05 -3.31689e-06)
(-9.87871e-06 -5.0537e-05 -4.75771e-06)
(-6.09923e-05 -3.12544e-05 9.45653e-05)
(-5.57799e-05 -3.308e-05 8.93651e-05)
(9.06538e-05 3.7845e-06 -0.000233584)
(9.87896e-05 -5.14787e-06 -0.000218306)
(-0.000137134 -5.95159e-05 -1.25064e-05)
(-0.000135957 -6.65015e-05 -1.47005e-05)
(-0.00029779 -4.79427e-05 0.000147119)
(-0.000319636 -5.20694e-05 0.000138603)
(-0.000291582 -7.47115e-05 -2.60469e-05)
(-0.00028497 -6.19202e-05 -3.52549e-05)
(-0.000174446 0.000192705 0.000237505)
(-0.000168375 0.000241235 0.00022064)
(-0.000248863 -4.48242e-05 1.316e-05)
(-0.00013108 -4.67431e-05 -1.84803e-05)
(-0.000206629 -7.74085e-05 7.46339e-05)
(-0.000178031 -7.58297e-05 6.31136e-05)
(-0.000227506 -5.18715e-05 5.87939e-05)
(-6.74094e-05 -4.2263e-05 -7.10721e-06)
(-3.91051e-05 -2.09127e-05 6.05047e-05)
(-3.22256e-05 -1.93907e-05 5.58587e-05)
(0.000538377 -0.000209259 0.000409464)
(0.000495756 -0.000184913 0.000342548)
(0.000473936 -0.000261504 0.000226955)
(0.000450354 -0.00019514 0.000257508)
(0.000458206 -0.000224965 0.000256457)
(0.000225992 -0.000141058 0.000184687)
(0.000319975 -0.000199006 0.000215797)
(0.000250129 -0.00014379 0.000199578)
(0.000417744 -0.000185729 0.000345957)
(0.000438969 -0.000227298 0.000328794)
(0.000435137 -0.000223923 0.000287178)
(0.000333144 -0.000218654 0.000188607)
(0.000437412 -0.000270577 0.000188657)
(0.000364391 -0.000197496 0.000242798)
(0.000134928 -6.447e-05 0.000159472)
(0.000219547 -0.000142314 0.000184355)
(0.000168805 -8.10667e-05 0.000179269)
(0.000124672 -4.89202e-05 0.000163529)
(7.24678e-05 5.10298e-05 0.000155287)
(0.000289253 0.000113108 3.89732e-05)
(0.000351071 0.000112191 9.1397e-05)
(0.00030005 7.483e-05 0.000104376)
(0.00031781 5.94253e-05 4.28631e-05)
(0.000378646 6.33369e-05 9.51079e-05)
(0.000342098 0.000100008 8.49427e-05)
(0.000307148 7.46846e-05 6.2045e-05)
(9.66825e-05 5.5879e-05 8.0881e-05)
(0.000114382 6.64764e-05 8.09273e-05)
(8.87767e-05 1.42903e-05 0.000133779)
(9.32411e-05 2.042e-05 0.000132118)
(0.000105505 1.23361e-05 0.000155399)
(8.73422e-05 2.83341e-06 0.000140163)
(9.91423e-05 3.7093e-05 0.000129117)
(7.96859e-05 3.74358e-05 9.78757e-05)
(7.85351e-05 4.13032e-05 7.10182e-05)
(7.23083e-05 2.22969e-05 8.83139e-05)
(6.53301e-05 1.08172e-05 0.000103507)
(5.11972e-05 3.42806e-06 8.21336e-05)
(6.4554e-05 -1.49438e-06 0.000100118)
(5.56179e-05 1.93845e-05 6.87163e-05)
(4.87052e-05 1.74489e-05 5.89089e-05)
(5.20595e-05 1.63699e-05 6.6941e-05)
(0.000154698 9.43849e-05 4.01195e-05)
(0.000187085 0.000104312 6.02892e-05)
(0.00019145 9.41267e-05 7.15957e-05)
(0.000183438 8.89085e-05 4.04667e-05)
(0.000113515 6.86546e-05 6.87243e-05)
(0.000131389 7.79639e-05 4.43611e-05)
(0.00014064 8.35645e-05 2.46198e-05)
(0.000143453 7.10922e-05 3.65986e-05)
(0.000124925 6.91774e-05 4.07389e-05)
(0.000272924 0.000112086 3.1554e-05)
(0.000225011 0.00010672 2.90241e-05)
(0.000289892 0.000102845 4.59896e-05)
(0.00026361 7.46156e-05 3.12041e-05)
(0.000235778 9.85917e-05 1.75482e-05)
(0.000215825 7.41055e-05 2.38372e-05)
(8.0544e-05 4.97636e-05 4.78341e-05)
(8.70758e-05 4.73691e-05 5.42899e-05)
(6.93583e-05 3.60256e-05 6.04064e-05)
(0.000106954 6.66176e-05 4.17953e-05)
(6.00203e-05 2.96864e-05 5.3388e-05)
(7.2221e-05 4.54945e-05 3.24081e-05)
(0.000118507 6.5021e-05 5.20212e-05)
(0.000155548 8.14032e-05 2.05575e-05)
(7.76511e-05 5.27258e-05 5.96087e-06)
(9.01041e-05 4.98826e-05 2.43014e-05)
(7.90495e-05 5.18238e-05 1.83463e-05)
(0.000142251 8.4476e-05 4.11577e-06)
(0.000173575 8.78301e-05 -1.79398e-05)
(0.000157035 6.11607e-05 2.00578e-05)
(0.000152418 7.55102e-05 7.15657e-06)
(0.000315526 2.82866e-05 0.000551681)
(0.000353639 5.72004e-05 0.000641307)
(0.000321535 -1.46614e-06 0.000573555)
(0.000333241 2.89251e-05 0.000589725)
(0.000352721 9.85776e-05 0.000390777)
(0.000380576 0.000103546 0.000463515)
(0.000272954 9.37498e-05 0.000381366)
(0.000297502 8.79095e-05 0.000436422)
(0.000294708 0.000106129 0.000439574)
(0.00027603 8.77954e-05 0.000451746)
(0.000390988 0.000156587 0.00050381)
(0.000327612 0.000132375 0.000377839)
(0.000372397 0.000137736 0.000470469)
(0.000237086 8.98442e-05 0.000383279)
(0.000317426 0.000115492 0.000478666)
(0.000403362 0.00012891 0.00037953)
(0.000363036 0.000134491 0.000449361)
(0.000355414 0.000130979 0.000449672)
(0.000410666 0.000135786 0.000560579)
(0.000426043 0.000169773 0.000495263)
(0.000469254 0.000183802 0.000492634)
(0.00046226 0.00019233 0.000465882)
(0.000451357 0.000159311 0.000556457)
(0.000435812 0.000163885 0.000556317)
(0.000393868 7.19781e-05 0.000458649)
(0.000504747 7.74068e-05 0.000490109)
(0.000387086 9.10287e-05 0.000472089)
(0.000300664 9.33863e-05 0.000370289)
(0.000379334 8.98433e-05 0.00046171)
(0.000414484 6.97868e-05 0.000402331)
(0.00031105 5.51539e-05 0.000302566)
(0.000336631 0.000101006 0.000363885)
(0.000360435 8.29453e-05 0.000352177)
(0.000364767 9.30042e-05 0.000344236)
(0.000486654 -4.16418e-05 0.000425194)
(0.000500588 -5.93622e-05 0.000422822)
(0.000511086 -0.000135799 0.000411563)
(0.000400683 -6.20001e-05 0.000367568)
(0.000481638 -0.000116523 0.000324225)
(0.000378803 -9.25489e-06 0.000338457)
(0.000525302 -0.000126463 0.000353229)
(0.000360993 -2.76947e-05 0.000291752)
(0.000464923 -9.69025e-05 0.000284683)
(0.000542143 -0.000204203 0.000270754)
(0.000340534 5.73548e-05 0.000353662)
(0.000340121 8.5362e-05 0.000372126)
(0.000379149 2.47667e-05 0.0003108)
(0.000377141 6.3892e-05 0.000328436)
(0.00039445 0.000141818 0.000375384)
(0.000429399 0.000148118 0.000508237)
(0.000426986 0.000145957 0.000455308)
(0.000440843 0.000126826 0.000369696)
(0.000496748 0.000161959 0.000413778)
(0.000496978 0.000190143 0.000522317)
(0.000447722 0.000158796 0.000521777)
(0.000472699 0.000156109 0.000550576)
(0.00047137 0.000172323 0.000397221)
(0.000451338 0.0001588 0.000522992)
(0.000451503 0.000164003 0.000521488)
(0.000573118 0.000208732 0.0006564)
(0.000546245 0.000195957 0.000512015)
(0.000401072 0.000116408 0.000368131)
(0.000568949 0.000179222 0.000420262)
(0.000451517 0.00010422 0.000392581)
(0.000580599 0.000146682 0.000398981)
(0.000513317 0.000178024 0.000439149)
(0.000517791 0.000162773 0.000510565)
(0.000694467 0.000261678 0.00052353)
(0.000549911 0.000186754 0.000433411)
(0.000524944 0.000159439 0.000456483)
(0.000734665 0.000258504 0.000483932)
(0.000568611 0.000245946 0.000484169)
(0.000604995 0.000209511 0.000591427)
(0.000560147 0.000182419 0.000624604)
(0.000663159 0.000226288 0.000621204)
(0.000660427 0.000231435 0.000599727)
(0.000350549 0.000140829 0.000456052)
(0.000341984 0.000131534 0.000449999)
(0.000235185 7.08372e-05 0.000425341)
(0.000338931 0.000128928 0.000488288)
(0.000426473 0.000121753 0.000632141)
(0.000390113 0.000112189 0.000580191)
(0.000378875 0.000147011 0.00049226)
(0.000398392 0.000155031 0.000511072)
(0.000381489 0.000148 0.000560495)
(0.000362906 6.26265e-05 0.000648786)
(0.000313552 4.34587e-05 0.00058045)
(0.000368062 0.000109099 0.000608342)
(0.000350805 9.55667e-05 0.00060399)
(0.000313858 4.28072e-05 0.000508007)
(0.000424945 0.000171104 0.000538659)
(0.000449832 0.000139455 0.000628484)
(0.000401291 0.000122857 0.00061165)
(0.000386895 -4.97088e-06 0.000638766)
(0.000476455 0.000144912 0.000711745)
(0.000358237 6.02656e-05 0.000604905)
(0.000464182 0.000187087 0.00052425)
(0.000503063 0.000195905 0.00056242)
(0.000447991 0.000141729 0.000624564)
(0.000438916 0.00017635 0.000559996)
(0.000507228 0.000205419 0.000563534)
(0.000503878 0.000127881 0.00069562)
(0.000514258 0.000145351 0.000783306)
(0.000409969 4.84663e-05 0.000674992)
(0.000376056 4.62834e-05 0.000615641)
(0.000408009 7.81458e-05 0.000649668)
(0.000463357 0.000130233 0.000690736)
(0.000395628 7.48866e-05 0.000607955)
(0.000514696 0.000220242 0.000602619)
(0.000513361 0.000106093 0.000750733)
(0.000593351 0.000191873 0.000853308)
(0.000282563 1.16239e-05 0.000493414)
(0.000293739 5.54294e-05 0.000502163)
(0.000358327 0.000131829 0.00056073)
(0.000377115 8.37509e-05 0.000638771)
(0.000355436 2.60857e-05 0.000589436)
(0.000438335 9.35593e-05 0.000696239)
(0.000336463 -1.23641e-05 0.000568984)
(0.00033845 4.01946e-05 0.000560108)
(0.000431883 0.000143345 0.000679014)
(0.000360504 4.57718e-05 0.00061348)
(0.000315378 3.69721e-05 0.000529218)
(0.000383766 -4.85314e-06 0.000633203)
(0.000333373 4.28088e-05 0.000559858)
(0.000354439 4.58113e-05 0.000584448)
(0.000430836 4.26286e-05 0.000703854)
(0.000336692 8.73482e-05 0.000578968)
(0.000335533 5.97911e-05 0.000565602)
(0.000428128 -5.7813e-05 0.000656304)
(0.000479632 0.000129141 0.000755181)
(0.000412635 -2.15137e-05 0.000694752)
(0.000524863 6.53731e-05 0.000858313)
(0.00040076 1.26394e-05 0.000669625)
(0.000420953 3.54071e-05 0.000685931)
(0.000530311 0.000159843 0.000770237)
(0.00042514 5.34394e-05 0.000679803)
(0.000485945 3.49353e-05 0.000773769)
(0.000523581 4.4936e-05 0.000858007)
(0.000533688 1.91151e-05 0.000856724)
(0.000420971 3.52496e-05 0.000674741)
(0.000476078 4.11652e-05 0.000755393)
(0.00042568 1.45777e-05 0.000675982)
(0.000485664 4.87687e-05 0.000768495)
(0.000548286 0.000176803 0.000684769)
(0.000536546 0.000193428 0.000612248)
(-2.10013e-05 -4.91004e-05 0.000160187)
(0.000567131 0.000155136 0.000775367)
(0.000493355 0.000140773 0.000663735)
(0.000616435 0.000228429 0.000663594)
(0.000575646 0.000222711 0.000600009)
(0.000610904 0.000215584 0.000673586)
(-2.52582e-05 -4.87756e-05 0.000159626)
(0.000544613 0.000173906 0.000710339)
(0.000564673 0.000209432 0.000657415)
(0.000611993 0.000230395 0.00068516)
(0.000556603 0.000169062 0.000764794)
(0.000625908 0.000179086 0.000913135)
(-2.28998e-05 -4.85586e-05 0.000156907)
(0.00046971 7.33138e-05 0.000728105)
(0.000433995 6.34318e-05 0.00071103)
(0.000467794 9.75577e-05 0.000706115)
(0.000527349 5.98489e-05 0.000796572)
(0.000464699 0.000107677 0.000703235)
(-2.53691e-05 -3.80721e-05 0.000159919)
(0.000576698 0.000237034 0.000663161)
(0.0005952 0.000121909 0.000837637)
(0.000682471 0.000217214 0.000930531)
(0.000657114 0.000220018 0.000773441)
(0.000715687 0.000252895 0.00064777)
(0.000772344 0.00028516 0.000656131)
(0.000646681 0.000191413 0.000833338)
(0.00060515 0.000176282 0.000745502)
(0.000634368 0.000258211 0.000626802)
(0.000668155 0.000237859 0.000678755)
(0.000642645 0.000204256 0.00075899)
(0.00071233 0.000245749 0.000809716)
(0.000737259 0.000283649 0.00077591)
(0.000657968 0.000205047 0.000836745)
(0.000685257 0.000172086 0.000940894)
(0.000562267 0.000138304 0.000783257)
(0.000626049 0.000139691 0.000974185)
(0.000509627 0.000105345 0.000751908)
(0.00058736 8.07968e-05 0.000888947)
(0.000730008 0.00024143 0.000925244)
(0.000606284 0.000196827 0.000765449)
(0.000644927 0.000168571 0.000920558)
(0.000536717 8.94358e-05 0.000866396)
(0.000556736 0.000150322 0.0007876)
(0.000728078 0.000131606 0.00102244)
(0.000640872 0.000146277 0.000994997)
(0.000591441 6.55874e-05 0.00094973)
(0.000592859 1.93645e-05 0.000944251)
(0.000474887 2.90673e-05 0.00078835)
(0.000467504 6.58167e-05 0.000733889)
(0.000602162 0.000119399 0.000871722)
(0.000614368 0.000125927 0.000960335)
(0.000577504 2.70626e-05 0.00090489)
(0.000593205 3.75125e-05 0.000934416)
(0.000602601 -4.02405e-05 0.000936524)
(0.000584349 3.80114e-05 0.000894432)
(0.000668869 0.000131557 0.000971456)
(-3.13415e-05 -4.31695e-05 0.000168303)
(0.000500781 -2.95494e-06 0.000820653)
(0.000455779 5.62191e-05 0.000718068)
(0.000649161 0.000149039 0.000956808)
(0.000675302 0.000188973 0.00101261)
(0.000564684 -2.38196e-06 0.000944117)
(0.000702183 6.15676e-05 0.00110937)
(0.000525707 4.01187e-05 0.000827385)
(0.000649384 2.85148e-05 0.000996181)
(0.000518993 5.07804e-05 0.000821123)
(0.000500016 -2.05001e-05 0.000761329)
(0.000642489 -9.11703e-05 0.000952485)
(0.0006874 3.05553e-05 0.00108979)
(0.000688306 -9.86714e-07 0.00107881)
(0.000368479 -5.08279e-05 0.000536394)
(0.000290456 2.01399e-05 0.000450845)
(0.000325395 9.88487e-06 0.000467609)
(0.000314919 1.00998e-05 0.000482239)
(0.000226475 4.10485e-05 0.000405127)
(0.000300936 2.83195e-05 0.000466504)
(0.00038479 3.19155e-06 0.000500465)
(0.000301774 4.69281e-05 0.000471853)
(0.000350243 4.49727e-05 0.000622238)
(0.000351921 6.21441e-05 0.000596884)
(-2.31126e-05 -4.18114e-05 0.000153488)
(-2.67798e-05 -4.38433e-05 0.000160385)
(-2.47809e-05 -4.05114e-05 0.000148568)
(-2.62631e-05 -3.68338e-05 0.00014943)
(0.000393085 3.324e-05 0.000615079)
(0.000355709 7.56486e-05 0.000564031)
(0.000423783 1.48542e-05 0.000568821)
(0.000380343 3.22346e-05 0.000511574)
(0.000398313 -1.33425e-05 0.000514032)
(0.000395012 3.76266e-06 0.000485184)
(-2.97039e-05 -3.62233e-05 0.000154803)
(0.000417228 1.95406e-06 0.000537471)
(-3.50258e-05 -2.88964e-05 0.000164876)
(-3.01196e-05 -3.46057e-05 0.000155895)
(0.000448896 1.13915e-05 0.000222619)
(0.000446483 1.54604e-05 0.000271341)
(0.000425163 -1.49057e-05 0.000257484)
(-3.3459e-05 -3.44493e-05 0.000153922)
(-2.65113e-05 -3.83237e-05 0.000164545)
(-2.59075e-05 -4.18636e-05 0.000161091)
(-3.23102e-05 -3.37699e-05 0.000174981)
(-3.38503e-05 -4.23039e-05 0.000182581)
(-2.96943e-05 -3.02933e-05 0.000166595)
(-2.85587e-05 -2.62466e-05 0.000159402)
(-3.46557e-05 -3.44864e-05 0.00015899)
(0.000397534 6.34843e-05 7.07226e-05)
(0.000458694 6.41016e-05 0.000136743)
(0.000377293 3.25614e-05 7.90281e-05)
(0.000362642 6.63977e-05 5.6488e-05)
(0.000377865 4.65951e-05 8.01843e-05)
(0.000439494 1.0362e-05 0.000124554)
(0.000425083 1.17694e-05 0.000186972)
(0.000451022 -3.14266e-05 0.000195231)
(0.00044495 -2.89852e-07 0.000161252)
(0.000425095 -1.23885e-06 0.000203673)
(0.000413909 2.80974e-05 8.72836e-05)
(0.000431659 -9.54163e-06 9.38912e-05)
(0.000438765 -9.56619e-06 0.000387127)
(0.00041651 5.28742e-06 0.000422137)
(0.000402651 -2.45886e-06 0.000438947)
(0.000364656 5.41498e-06 0.000422095)
(0.000396061 3.19362e-06 0.000463759)
(0.000333126 2.47905e-05 0.000431289)
(0.000464823 -5.48031e-06 0.000415725)
(0.000470933 -2.63301e-05 0.000355798)
(0.000475255 -1.58439e-05 0.000341208)
(0.00041538 -5.17462e-06 0.000355335)
(0.000394243 -2.3476e-05 0.000444869)
(0.000409853 -1.52716e-05 0.000399837)
(0.000435828 2.2164e-05 0.000516313)
(0.000504495 -3.72399e-05 0.000247599)
(0.000464576 -5.29103e-05 0.000332904)
(0.000475735 -5.41602e-05 0.000279762)
(0.00048911 -3.53162e-05 0.000353965)
(0.000524546 -8.9067e-05 0.000227456)
(0.000462859 -5.09146e-05 0.000385785)
(0.000429923 -4.45499e-05 0.000449234)
(0.000470075 -7.23998e-05 0.00043044)
(0.000473831 -1.62455e-05 0.000520513)
(0.000555705 -0.000104315 0.000408568)
(0.000514103 -0.00010381 0.000336788)
(0.000526557 -9.37085e-05 0.000273204)
(0.00051101 -7.04478e-05 0.000343166)
(0.000458156 -5.07673e-05 0.000176332)
(0.000455391 -4.15251e-05 0.000140343)
(0.000487122 -4.48269e-05 0.000180938)
(0.000334542 7.50928e-05 2.66381e-05)
(0.000344281 5.70756e-05 5.37461e-05)
(0.000297561 8.4082e-05 5.52373e-06)
(0.000321212 6.98501e-05 2.4183e-05)
(0.000365186 3.0816e-05 4.5882e-05)
(0.000410125 -2.22766e-06 6.84995e-05)
(0.000336833 4.52557e-05 4.52715e-05)
(0.0002284 8.31122e-05 -5.00833e-06)
(0.000310192 8.97252e-05 1.18029e-05)
(0.000144893 7.13154e-05 3.64847e-05)
(0.000155395 6.79113e-05 1.26584e-05)
(0.000257067 9.74684e-05 6.17187e-06)
(0.000270994 7.19978e-05 4.12622e-05)
(0.00024914 3.98894e-05 -1.79678e-05)
(0.000291797 4.83788e-05 2.54536e-05)
(0.000350636 3.77444e-05 1.76727e-05)
(0.000246975 7.69264e-05 4.70354e-06)
(0.000236194 5.4891e-05 9.77736e-06)
(0.000313837 5.44156e-05 1.6182e-05)
(0.000588598 -0.000139496 0.000192211)
(0.000571405 -0.000142597 0.000347555)
(0.000559121 -0.000140005 0.000274431)
(0.000583626 -0.000128895 0.000351914)
(0.000466406 -3.10794e-05 0.000107652)
(0.000508662 -0.000104746 0.0001722)
(0.000468186 -5.50691e-05 0.000149851)
(0.00047239 -7.64675e-05 0.000152745)
(0.000422602 -1.828e-05 6.52808e-05)
(0.000458224 -6.03314e-05 9.9544e-05)
(0.000544724 -0.000112168 0.000136465)
(0.000588851 -0.000131709 0.000170758)
(0.000617165 -0.000200118 0.000241521)
(0.000579351 -0.000138846 0.00016374)
(0.000554453 -0.000148245 0.000193875)
(0.000386654 1.61221e-05 3.97814e-05)
(0.00039784 -8.75664e-06 3.82068e-05)
(0.000427536 -5.84819e-05 9.49955e-05)
(0.000399288 -8.63399e-06 6.84451e-05)
(0.000415493 -3.66325e-05 5.68801e-05)
(0.000328256 3.32983e-05 4.40101e-05)
(0.000375272 -5.3137e-06 4.05104e-05)
(0.000553232 -0.000104072 9.78825e-05)
(0.000584113 -0.000159804 0.000115068)
(0.000602984 -0.000159584 0.000107095)
(0.000465753 -7.05347e-05 0.0001086)
(0.000428539 -3.28942e-05 0.0001218)
(0.000477839 -7.01894e-05 8.77286e-05)
(0.000308721 5.43349e-05 0.000527503)
(0.000327278 3.55643e-05 0.000544147)
(0.000370524 -1.53861e-05 0.000581284)
(0.000369214 7.18949e-06 0.000573267)
(0.00031524 7.37772e-05 0.000532509)
(0.000357517 7.38181e-06 0.000541457)
(0.000456561 -2.72136e-05 0.000680915)
(0.000327171 2.78951e-05 0.00053491)
(0.000358523 1.51196e-05 0.000554113)
(0.000415661 2.54527e-05 0.000639923)
(0.000407069 -1.36189e-05 0.000563908)
(0.000374194 1.0602e-05 0.000527776)
(0.000418896 1.61915e-05 0.000599685)
(0.0004858 -1.90111e-05 0.000689799)
(0.00049222 1.86536e-05 0.000810189)
(0.00036946 4.84972e-05 0.000591851)
(0.000423756 4.86247e-05 0.000685482)
(0.000406057 5.03762e-05 0.000679204)
(0.000434341 1.47995e-06 0.000666178)
(0.000576333 -6.97748e-05 0.000814221)
(0.000533106 -0.00011839 0.000710461)
(0.000441759 6.13187e-05 0.000718339)
(0.000461911 -1.64904e-05 0.000679421)
(0.000414714 3.63802e-06 0.00058281)
(0.00046876 5.29468e-06 0.000666302)
(0.000457301 -4.24922e-05 0.000567906)
(0.000414853 -3.37985e-05 0.000492256)
(0.000465443 -1.54212e-05 0.000591616)
(-3.62013e-05 -2.99808e-05 0.000160868)
(0.000532212 -0.000114768 0.000632718)
(0.000503522 -8.33492e-05 0.00053404)
(0.000546827 -3.3198e-05 0.00066298)
(0.000432304 -2.67782e-05 0.000616177)
(0.000502152 -6.0582e-05 0.000633953)
(0.000570122 -4.68411e-05 0.000743824)
(0.000521057 -0.000111799 0.000521037)
(0.000514754 -0.000104269 0.000435377)
(0.000499056 -4.7091e-05 0.000541433)
(0.00063594 -4.37597e-05 0.000969148)
(0.000445065 2.18859e-06 0.000679568)
(-3.63502e-05 -2.5813e-05 0.000148691)
(0.000475208 -2.65989e-05 0.000676507)
(0.000549864 -1.71689e-05 0.000801344)
(0.000621112 -9.40872e-05 0.000870473)
(0.000636432 -0.000138445 0.000803878)
(0.000468348 -7.18121e-05 0.000579222)
(-4.14654e-05 -2.12557e-05 0.000160444)
(0.000582105 -0.000216838 0.000532999)
(0.000604733 -8.6349e-05 0.000721742)
(0.000611233 -0.000107529 0.000826332)
(0.000542485 -0.000115581 0.00067747)
(0.000602275 -7.39535e-05 0.000793655)
(0.000667454 -0.000152854 0.000770564)
(0.000600196 -0.000142262 0.000613219)
(0.000730444 -0.000254982 0.000780568)
(0.000655507 -0.000267159 0.000600346)
(0.000681605 -0.000184287 0.000756765)
(0.000480832 1.14761e-05 0.00075137)
(0.000485709 -4.4339e-05 0.000707515)
(0.000597476 -5.89995e-05 0.00086133)
(0.000639308 -6.49237e-05 0.000952461)
(0.000628049 -0.000163381 0.000866613)
(0.00057752 1.30884e-05 0.000864394)
(0.000652889 -0.000120643 0.000970845)
(0.000618466 4.85989e-05 0.00096232)
(0.000579554 -7.26664e-05 0.000852083)
(0.000570423 -0.000109534 0.00078751)
(0.000680822 -0.000145786 0.000932791)
(0.000564925 -0.000125415 0.000769832)
(0.000619994 -0.000182505 0.000739881)
(0.000700699 -0.000163133 0.000881999)
(0.000798643 -0.000255086 0.000940391)
(0.000616145 -0.000249191 0.000688111)
(0.000735644 -0.00035727 0.000620632)
(0.000743214 -0.000202335 0.000829969)
(0.000619742 -0.000183144 0.000416574)
(0.000515466 -0.000178089 0.0004441)
(0.000603183 -0.000194294 0.000451571)
(0.000585548 -9.82024e-05 0.00059354)
(0.00064177 -0.000178264 0.000593022)
(0.00064396 -0.000220034 0.000408545)
(0.000592893 -0.000208306 0.000361071)
(0.000661765 -0.000218733 0.000252513)
(0.000597284 -0.000164645 0.000346697)
(0.000690827 -0.000256469 0.00041858)
(0.000705618 -0.000301562 0.000288722)
(0.000685615 -0.000248592 0.000389441)
(0.000713495 -0.000268729 0.000594386)
(-4.41809e-05 -1.70921e-05 0.000158686)
(0.00068715 -0.000317218 0.00043738)
(0.000690552 -0.000237113 0.000583453)
(0.000813427 -0.000385151 0.000696534)
(0.000797402 -0.000414695 0.000470646)
(0.000744025 -0.000281897 0.00064032)
(-4.74681e-05 -1.24085e-05 0.000159993)
(0.000775831 -0.000370128 0.000474266)
(0.000815707 -0.000382594 0.000343909)
(-3.59704e-05 -3.43265e-05 0.000183071)
(0.000708938 -0.000279423 0.000446097)
(0.000641757 -0.000217823 0.000260592)
(-4.00184e-05 -2.70467e-05 0.000186315)
(0.000652033 -0.000194727 0.000220089)
(0.000635542 -0.000210273 0.000226274)
(-3.42613e-05 -3.41577e-05 0.00016839)
(0.000707575 -0.000205912 0.000172032)
(-3.74112e-05 -1.67201e-05 0.000169743)
(-4.06969e-05 -2.86285e-05 0.000183173)
(0.000730613 -0.0003281 0.000243566)
(0.000679874 -0.000246009 0.000217872)
(-4.18496e-05 -2.72069e-05 0.000182827)
(0.000674911 -0.000252509 0.000271668)
(0.000391498 -0.000230659 0.000220948)
(-4.53813e-05 -1.9792e-05 0.000178121)
(0.000455866 -0.000280088 0.00018113)
(0.000363664 -0.000224735 0.000177923)
(-4.44057e-05 -2.04411e-05 0.000182247)
(0.000261198 -0.000164701 0.000181026)
(0.000329947 -0.000215547 0.00018457)
(-4.82941e-05 -1.30654e-05 0.000190944)
(0.000237583 -0.000158833 0.000150582)
(0.000288495 -0.000162151 0.00022748)
(-3.7141e-05 -1.9622e-05 0.000164289)
(-3.36553e-05 -1.7407e-05 0.000151538)
(0.000334125 -0.000201719 0.00018025)
(-3.9279e-05 -2.3793e-05 0.000154)
(-4.11324e-05 -1.82204e-05 0.000168268)
(0.000159735 -9.29802e-05 0.00014788)
(-3.95875e-05 -1.58483e-05 0.000152865)
(-4.35031e-05 -1.32319e-05 0.000166652)
(0.000218993 -0.000139254 0.000170421)
(-4.21017e-05 -1.26249e-05 0.000151031)
(0.000147711 -8.93918e-05 0.000129967)
(7.89333e-05 -3.27941e-05 9.86043e-05)
(0.000134678 -6.7743e-05 0.000148883)
(9.37826e-05 -3.29983e-05 0.000117563)
(6.2013e-05 -1.99877e-05 8.46802e-05)
(0.000105297 -4.1231e-05 0.000126432)
(7.37064e-05 -4.05243e-05 8.0317e-05)
(0.000162293 -8.09703e-05 0.000167749)
(0.000200908 -0.00010932 0.00016854)
(0.000213806 -0.000177823 8.64253e-05)
(0.000348522 -0.000253493 0.00011863)
(0.000247053 -0.000166545 0.000141401)
(9.14952e-05 -6.7082e-05 6.68295e-05)
(0.0002048 -0.000160472 0.0001029)
(0.000147716 -9.99682e-05 0.000113876)
(0.000103556 -6.6183e-05 9.97296e-05)
(0.000146728 -9.06369e-05 0.000131498)
(0.000196586 -0.000126333 0.000129751)
(3.93964e-05 -4.62608e-05 1.79258e-05)
(0.000104095 -6.76904e-05 8.88997e-05)
(7.49037e-05 -7.37039e-05 4.88398e-05)
(4.09014e-05 4.85887e-05 8.93898e-05)
(4.41404e-05 2.8341e-05 9.18108e-05)
(4.41616e-05 4.84767e-05 9.66611e-05)
(5.88653e-05 5.50922e-05 0.00010793)
(7.30976e-05 3.48007e-05 0.000112892)
(3.4761e-05 4.74363e-05 6.98035e-05)
(-2.5508e-05 -3.87216e-05 0.000144857)
(1.99496e-05 7.07391e-05 6.79591e-05)
(1.93525e-05 4.02247e-05 3.36379e-05)
(4.68699e-05 3.55691e-05 7.28016e-05)
(2.45205e-05 3.3313e-05 3.5291e-05)
(5.90686e-05 1.6984e-06 9.76243e-05)
(-2.83222e-05 -3.54296e-05 0.000147206)
(2.82002e-05 1.74968e-05 6.30214e-05)
(5.42233e-05 3.7674e-06 9.43151e-05)
(4.16942e-05 4.07697e-06 6.75965e-05)