/*--------------------------------*- C++ -*----------------------------------*\
  =========                 |
  \\      /  F ield         | OpenFOAM: The Open Source CFD Toolbox
   \\    /   O peration     | Website:  https://openfoam.org
    \\  /    A nd           | Version:  7
     \\/     M anipulation  |
\*---------------------------------------------------------------------------*/
FoamFile
{
    version     2.0;
    format      ascii;
    class       volScalarField;
    location    "8.25";
    object      p;
}
// * * * * * * * * * * * * * * * * * * * * * * * * * * * * * * * * * * * * * //

dimensions      [0 2 -2 0 0 0 0];

internalField   nonuniform List<scalar> 
382612
(
0.00208077
0.00183814
0.00199695
0.0019998
0.0017404
0.00220844
0.00212251
0.00201556
0.00184503
0.00168446
0.00188013
0.00186786
0.00181221
0.00183947
0.00195242
0.0020733
0.00184981
0.00198975
0.00202163
0.00204156
0.00206047
0.00208493
0.00210932
0.0021183
0.00209958
0.00207629
0.00205336
0.00245906
0.0025031
0.0025403
0.00257121
0.002362
0.00235564
0.00234694
0.00233125
0.00224598
0.0019577
0.00204439
0.00210497
0.00213551
0.00216042
0.00218246
0.00209758
0.0020819
0.0020611
0.00203467
0.00195152
0.00196564
0.00198569
0.00200218
0.00216124
0.00214566
0.0021269
0.00210659
0.00208067
0.00192287
0.00197464
0.00205704
0.0021188
0.00200849
0.00208103
0.00195583
0.00197272
0.00261316
0.00201857
0.00186507
0.00212757
0.0023315
0.00243257
0.00256242
0.00257964
0.00258191
0.00258301
0.00271927
0.00270983
0.0026973
0.002673
0.00256882
0.00236914
0.00247036
0.00250989
0.00253657
0.00255537
0.00288619
0.00289338
0.0029017
0.00288642
0.00273586
0.00212072
0.00224495
0.00227544
0.00229022
0.0023
0.00247514
0.00248933
0.00250675
0.00250841
0.00244166
0.00201425
0.00208324
0.00210418
0.00211717
0.00213111
0.00214697
0.00202263
0.00201554
0.00200731
0.00200417
0.00181437
0.00184308
0.00186402
0.00187912
0.00212923
0.00211111
0.00209074
0.00207032
0.0020432
0.00170428
0.0018221
0.00185398
0.00186857
0.00187723
0.00203941
0.00202165
0.00200215
0.0019797
0.00191314
0.00165995
0.00184361
0.00197148
0.0019939
0.00200251
0.00200532
0.00221316
0.00222191
0.00223411
0.00224693
0.00236055
0.00233966
0.00220903
0.00217776
0.00215872
0.00214511
0.00189677
0.00188699
0.0018755
0.00186964
0.00198697
0.00199978
0.00201075
0.00201777
0.00201093
0.00200767
0.00200108
0.00199626
0.0020383
0.00195788
0.00188874
0.00188858
0.00189509
0.00189949
0.00183192
0.00198533
0.00202223
0.00170965
0.00187335
0.0018165
0.00209994
0.00230822
0.00178017
0.00180167
0.00213708
0.00174338
0.00181841
0.00179708
0.00172885
0.00172551
0.00173423
0.00173978
0.0022421
0.00225268
0.00227021
0.00229323
0.00229353
0.00196654
0.00192714
0.00191697
0.00191631
0.00191758
0.00223526
0.00224998
0.00227376
0.00230337
0.00233201
0.0020049
0.00211364
0.00212134
0.00212008
0.00211527
0.00211212
0.00193257
0.00193265
0.00193491
0.00194671
0.00164976
0.00165257
0.0016595
0.00166231
0.00198226
0.00198291
0.0019831
0.00198581
0.00202251
0.00167538
0.00166558
0.0020263
0.00192478
0.00161176
0.00184284
0.001982
0.00169506
0.0019729
0.00193968
0.00166185
0.00158882
0.00190021
0.00190878
0.00175442
0.00157695
0.00181011
0.00195052
0.00200757
0.00198132
0.00197168
0.00183705
0.00167029
0.002007
0.00193154
0.00199383
0.00202636
0.00194525
0.00199323
0.00211581
0.00209159
0.00189453
0.00193901
0.00197573
0.00198635
0.00199949
0.00201339
0.00216276
0.00216048
0.00215215
0.00211211
0.00237616
0.00235185
0.00233337
0.00231636
0.00273381
0.00272372
0.00271428
0.00269093
0.00255763
0.00247846
0.00241533
0.00241983
0.00243135
0.00243467
0.00244051
0.00210455
0.00210667
0.00210201
0.00208842
0.00209639
0.00255709
0.00251998
0.00252269
0.002532
0.00254021
0.00236713
0.00235358
0.00233179
0.00231478
0.00233889
0.00255236
0.00250617
0.00250546
0.0025192
0.00253054
0.00273032
0.00273078
0.00273067
0.00272162
0.00265114
0.00256682
0.00269046
0.00271985
0.00273245
0.00273978
0.00315729
0.00316351
0.00317156
0.00315387
0.00298335
0.00221397
0.00223908
0.00225436
0.00227649
0.00229457
0.00236857
0.00236089
0.00235052
0.0023297
0.00223215
0.00205156
0.00212889
0.00216131
0.00218497
0.00220074
0.00253668
0.0025511
0.00257463
0.00258569
0.00250335
0.0018542
0.0018514
0.00185702
0.0018736
0.00188935
0.00196217
0.00196119
0.00197307
0.00198735
0.00199702
0.00194032
0.00192566
0.00190731
0.00189703
0.00188685
0.0024368
0.00243907
0.00241795
0.00239194
0.00237359
0.00187443
0.00186545
0.00185486
0.00185685
0.00189764
0.00237832
0.00232813
0.0022969
0.00227208
0.00225641
0.00174796
0.00174357
0.00173902
0.00175322
0.00185135
0.00205189
0.00198884
0.00197996
0.00198423
0.00198919
0.0022229
0.00223547
0.00225473
0.00228109
0.00233012
0.00195451
0.00186341
0.00185149
0.00185817
0.00186456
0.00218888
0.00219957
0.00221505
0.00223233
0.00224098
0.00201061
0.00204364
0.00204582
0.00204673
0.00204371
0.00204083
0.00196596
0.00196516
0.00196478
0.00197013
0.0018114
0.00180881
0.00181044
0.00181135
0.0019829
0.00198626
0.00198927
0.00199146
0.00199965
0.00183072
0.0020853
0.00203118
0.00201859
0.00201472
0.00201199
0.00196335
0.00213186
0.0022065
0.00215794
0.00214275
0.00213467
0.00212916
0.0019915
0.0019911
0.00199022
0.00198957
0.00203875
0.00203649
0.00203278
0.00202996
0.00205476
0.00205603
0.00205811
0.00205955
0.00204289
0.00204451
0.00204858
0.00205153
0.00222338
0.00222769
0.00223218
0.00223567
0.00225591
0.0020588
0.00206218
0.00208938
0.00215705
0.00201126
0.00205843
0.00201891
0.001906
0.00178813
0.0019783
0.00198125
0.00182136
0.00215156
0.00210774
0.0020802
0.00212221
0.00199876
0.00204127
0.00211184
0.00219283
0.0021899
0.00228968
0.00227845
0.00224402
0.00223819
0.0022395
0.00224155
0.00232661
0.00232367
0.00231954
0.00231484
0.00231331
0.00236506
0.00237254
0.00237474
0.00237723
0.00238031
0.00230952
0.00230985
0.00230961
0.00230632
0.00230212
0.00213211
0.00207497
0.00208319
0.00208542
0.00208503
0.00208491
0.00214636
0.00213948
0.00213075
0.00212543
0.00207781
0.00208198
0.00208709
0.00209092
0.00205808
0.00205907
0.0020605
0.00206004
0.00205593
0.00207764
0.00227031
0.00225693
0.00225757
0.00225669
0.00225464
0.00227036
0.00235149
0.00230027
0.00228705
0.00229225
0.00230049
0.00230653
0.00251587
0.00251502
0.00251222
0.00250027
0.0024606
0.00248852
0.00251335
0.00252322
0.00252958
0.00253415
0.00244623
0.00244032
0.00243266
0.00242451
0.00241953
0.00234596
0.00237583
0.00238942
0.00239545
0.0023993
0.00220458
0.00219369
0.00218072
0.002174
0.00212694
0.00213128
0.0021322
0.0021333
0.002168
0.00216613
0.0021641
0.00215985
0.00221722
0.0022192
0.00222517
0.0022304
0.00245767
0.00244668
0.00243246
0.00241451
0.00238189
0.00221954
0.00214169
0.00212811
0.00224329
0.00216888
0.00211612
0.00208446
0.00214867
0.00201285
0.00203585
0.00208708
0.00213631
0.00218399
0.00209473
0.00210899
0.00221866
0.00217748
0.00210991
0.00229265
0.00236634
0.00245774
0.00249471
0.00244367
0.00245033
0.00245878
0.00246796
0.00247453
0.00258915
0.00258232
0.00257216
0.00255679
0.00252632
0.00255362
0.0025845
0.00259681
0.00260395
0.00260846
0.00251734
0.00251337
0.00250703
0.00249621
0.00248275
0.00247072
0.00248169
0.00248827
0.00249164
0.0024936
0.00242865
0.00241844
0.00240494
0.00238938
0.00235693
0.00222329
0.00224499
0.00224458
0.00224194
0.00223987
0.00231437
0.0023055
0.00229494
0.00228013
0.00223329
0.00215545
0.00210417
0.00211398
0.00211832
0.00211856
0.00211808
0.00214126
0.00213755
0.0021334
0.00213575
0.00218362
0.00218855
0.0021952
0.00220035
0.00213472
0.00213366
0.00213292
0.0021317
0.00212275
0.00217848
0.00216079
0.00210148
0.00210193
0.00214757
0.00210806
0.00207744
0.00208648
0.00212346
0.00222031
0.00212938
0.00205604
0.00206965
0.0021423
0.002073
0.00231301
0.00263517
0.00221007
0.00210665
0.00232918
0.00247646
0.00256283
0.00257877
0.00255782
0.00253818
0.00245297
0.00248758
0.00250271
0.00250987
0.00251394
0.00258975
0.00258463
0.00257828
0.002569
0.00253988
0.00255048
0.00258199
0.00259159
0.00259777
0.00260253
0.00255487
0.00254679
0.00253606
0.00252489
0.00251156
0.00254995
0.00258122
0.00259275
0.00259971
0.00260455
0.0025596
0.00255683
0.0025507
0.00253639
0.0024981
0.00238011
0.00237565
0.00238046
0.0023879
0.00239398
0.00245118
0.00244918
0.00244659
0.00244021
0.00241627
0.00230097
0.00229944
0.00230447
0.00230997
0.00231363
0.00219081
0.00218682
0.00218191
0.00217773
0.00217327
0.00211187
0.00208831
0.00209622
0.00209926
0.00209908
0.00209732
0.00211956
0.00211606
0.00211134
0.00210825
0.00209686
0.00209833
0.00210146
0.00210494
0.00207061
0.00207085
0.00206911
0.00206439
0.0020622
0.00210353
0.00219165
0.00218496
0.00218888
0.00219413
0.00219851
0.00214517
0.00214108
0.00213581
0.002132
0.00213549
0.00205978
0.00204581
0.0020569
0.00206051
0.00206207
0.00206397
0.00208324
0.00207793
0.00207147
0.00206622
0.00208704
0.00208764
0.00208883
0.00208993
0.00208411
0.00208199
0.00208181
0.00208131
0.00207388
0.00208566
0.00208029
0.00205282
0.0020734
0.00207107
0.0020091
0.00201765
0.00210184
0.00212988
0.00215372
0.0020918
0.00206564
0.00203912
0.00208376
0.00207061
0.00197681
0.00187769
0.00211
0.00207449
0.00213684
0.00218205
0.0023133
0.00217392
0.00218225
0.00233957
0.00209859
0.00206347
0.00213697
0.0022773
0.00219884
0.00211396
0.00210168
0.00223324
0.00227718
0.00213638
0.00209007
0.00209724
0.0023371
0.00232889
0.00238188
0.0023873
0.00239486
0.00238376
0.00238164
0.00238241
0.00238374
0.00237993
0.00237832
0.00237735
0.00237873
0.00237696
0.00246453
0.00248375
0.00248878
0.00249273
0.0024961
0.00241569
0.00241348
0.0024088
0.00239757
0.00237244
0.00230973
0.00230589
0.00230601
0.00230893
0.00231236
0.00241703
0.00241209
0.0024064
0.00239889
0.00237531
0.00239385
0.00241912
0.00242829
0.00243559
0.00244167
0.00253182
0.00252717
0.00251995
0.00250385
0.00246268
0.0023796
0.00239888
0.002412
0.00242007
0.0024249
0.00251081
0.00250541
0.00249923
0.00249301
0.002475
0.00246981
0.00247918
0.00248388
0.00248798
0.00249112
0.00240627
0.002404
0.00240222
0.0024008
0.0023885
0.00233973
0.00233021
0.00232759
0.0023289
0.00233057
0.00224153
0.00223655
0.0022305
0.00222829
0.00224179
0.00226135
0.00227717
0.00228011
0.00227988
0.00227997
0.00216833
0.00217045
0.00217219
0.00217236
0.00216512
0.00216407
0.00217899
0.00217882
0.0021753
0.00217196
0.00204663
0.00204255
0.00203806
0.00203731
0.00206729
0.00207243
0.00207533
0.00207793
0.00206764
0.00206375
0.00205889
0.00205169
0.00204366
0.00204479
0.00204267
0.0020474
0.00205255
0.00205632
0.00207554
0.00207617
0.00207638
0.00207661
0.00207651
0.00205839
0.00205512
0.00205439
0.00205438
0.00205416
0.00201701
0.00201323
0.00200809
0.00200426
0.00202216
0.00202684
0.00203069
0.00203458
0.00210493
0.00210119
0.00209934
0.00209711
0.00206948
0.00206689
0.00206879
0.00207144
0.00209593
0.00210016
0.0021061
0.00211257
0.00211803
0.00208129
0.00209114
0.00207234
0.00204813
0.00189083
0.00197151
0.00209413
0.0020442
0.00200049
0.00204248
0.00208249
0.0020855
0.00181101
0.00196414
0.00195326
0.00177356
0.00186448
0.0019454
0.00200342
0.00196262
0.00208003
0.00205446
0.00210569
0.00219443
0.00231154
0.00214571
0.00210262
0.00216973
0.00217339
0.00212288
0.00201365
0.00199852
0.00195134
0.00222047
0.00246022
0.0026282
0.00270117
0.00266449
0.00252457
0.00232043
0.00209088
0.00188076
0.00174583
0.00179459
0.00180739
0.00180651
0.00180352
0.00192883
0.00192166
0.00191386
0.00190923
0.00190399
0.00211676
0.00218306
0.00219947
0.0022007
0.00219936
0.0022829
0.00227421
0.00226421
0.00225703
0.00224024
0.00217968
0.00223051
0.00224311
0.00224838
0.00225193
0.00222
0.00221871
0.00221413
0.0022009
0.00215447
0.00233825
0.0023482
0.00235241
0.00236036
0.00236776
0.00230324
0.00230271
0.00229901
0.00228484
0.00223727
0.00216171
0.00217034
0.00217586
0.00217954
0.00218112
0.00231932
0.00231539
0.00231239
0.00231388
0.00231894
0.00228907
0.00228291
0.00228805
0.00229438
0.00229898
0.00229268
0.0022911
0.00228728
0.00227982
0.00227313
0.0022255
0.00224291
0.00224943
0.00225096
0.00225088
0.00215822
0.00215581
0.00215287
0.00215231
0.00215797
0.00222397
0.00221292
0.00220671
0.00220337
0.00220191
0.00211591
0.00211127
0.00210649
0.00210832
0.00213597
0.0021054
0.00209284
0.00209484
0.00209899
0.00210182
0.00212472
0.00212945
0.00213718
0.00214649
0.00214904
0.00202821
0.00201519
0.00201716
0.00201995
0.00202154
0.00198793
0.00198567
0.00198223
0.00198066
0.00199512
0.00200675
0.00200188
0.00200228
0.00200267
0.00200186
0.00203872
0.00203493
0.00202964
0.00202537
0.0020261
0.00197477
0.00200236
0.00201139
0.00202151
0.0020314
0.00203983
0.00201489
0.00200757
0.00199673
0.00198459
0.0020057
0.00200663
0.00200896
0.00201073
0.00204621
0.00204416
0.00204207
0.00203789
0.00202926
0.00201547
0.00206012
0.00208351
0.00207446
0.00201853
0.00192336
0.00202784
0.00197929
0.00184667
0.00199783
0.00202899
0.00187904
0.00167618
0.00176867
0.00195118
0.00185852
0.00164904
0.00181609
0.00188225
0.00192886
0.00191526
0.00194407
0.001968
0.00200284
0.00195408
0.00162967
0.0018413
0.00185024
0.0016393
0.00161958
0.0016707
0.00173751
0.00190586
0.00207686
0.0022026
0.0022519
0.00220094
0.00205547
0.00183951
0.00159913
0.00137469
0.00126847
0.00132006
0.00132755
0.00132289
0.00131746
0.00143683
0.00143043
0.00142421
0.00142112
0.00141324
0.00169929
0.00175134
0.00176197
0.00175935
0.00175449
0.00188293
0.00187499
0.0018663
0.0018625
0.00186073
0.00204252
0.00205104
0.00205584
0.00206137
0.00206559
0.00196468
0.00195949
0.00195513
0.00195786
0.00196111
0.00212069
0.00210053
0.00209639
0.00210004
0.00210441
0.00202828
0.00202605
0.00202681
0.00203587
0.00204299
0.00214309
0.00211125
0.00209888
0.00209748
0.00209868
0.00210359
0.00210203
0.00209947
0.00209864
0.0021117
0.00224809
0.00224732
0.00224127
0.00223898
0.00223946
0.00218865
0.00218799
0.00218861
0.00219673
0.0022291
0.00215253
0.00215185
0.00214395
0.00214037
0.00213927
0.00212657
0.00212839
0.0021327
0.00214273
0.00215827
0.00208635
0.0020741
0.00207266
0.00207433
0.00207587
0.00213087
0.00213064
0.00212986
0.00212767
0.00212094
0.00215583
0.00211778
0.00217039
0.00216522
0.00209523
0.00209216
0.00209541
0.00209791
0.0020986
0.00203351
0.00203184
0.00203057
0.00203463
0.00205824
0.00200812
0.00200368
0.0020065
0.00200718
0.0020068
0.00199657
0.00199518
0.00199279
0.00199041
0.00199901
0.00199585
0.00200012
0.00200126
0.002001
0.00200059
0.0019582
0.00195886
0.00195993
0.00196422
0.00198468
0.0021451
0.00213939
0.00212463
0.00211369
0.00210765
0.00208129
0.00208456
0.00209138
0.00210785
0.00215921
0.00206558
0.00208095
0.00207313
0.00207044
0.00206909
0.00207008
0.0020161
0.00201775
0.00202149
0.00203351
0.00195349
0.0019642
0.00196976
0.00197312
0.00210003
0.0020968
0.00209294
0.00208325
0.00205614
0.00192959
0.00199039
0.0021234
0.00202325
0.00192561
0.00191271
0.00209336
0.00193728
0.0019288
0.00196015
0.0019709
0.00197268
0.00197188
0.00188301
0.00188253
0.00188087
0.00187974
0.0018876
0.0019457
0.00197988
0.00198327
0.00198153
0.00197919
0.0020196
0.00202688
0.00203326
0.00202837
0.0019716
0.00196283
0.0020097
0.00203258
0.00203939
0.00204426
0.00205045
0.00201129
0.0020138
0.0020145
0.00200691
0.00194155
0.00194928
0.00195886
0.00196532
0.00206705
0.00206048
0.00205239
0.00204059
0.00202364
0.00195737
0.0020536
0.00206179
0.00203274
0.00195653
0.00176817
0.00194228
0.00190336
0.0016642
0.00162533
0.00184912
0.0017851
0.00155239
0.00180291
0.00187596
0.00194135
0.00198203
0.00183559
0.00185215
0.0019012
0.00187548
0.00184169
0.00193187
0.00199087
0.00192326
0.00205645
0.00204838
0.00198726
0.00193382
0.00188956
0.00200404
0.00193374
0.00176974
0.00203103
0.00205258
0.00205285
0.00207803
0.00203607
0.00203395
0.00200957
0.00204365
0.00169587
0.00185561
0.00190543
0.00168774
0.0017742
0.00192201
0.00196599
0.00199433
0.0018793
0.00195134
0.00189671
0.00177871
0.00174921
0.00188818
0.00192401
0.00170877
0.00178986
0.00195316
0.00196222
0.00176952
0.00186591
0.00198968
0.00200141
0.00190076
0.00179018
0.00198842
0.00194855
0.00171015
0.00195469
0.00194389
0.00191512
0.00186896
0.00179073
0.00178098
0.00178407
0.00178578
0.00201168
0.00201217
0.00201301
0.00202068
0.00206871
0.00228682
0.00223348
0.00221404
0.00220416
0.00219923
0.00200104
0.00199604
0.00199102
0.00199971
0.00207418
0.00224748
0.00222142
0.00220787
0.00220145
0.00219865
0.00215574
0.00215252
0.00214948
0.00215435
0.00220239
0.00213318
0.00211426
0.00199926
0.0019551
0.00190485
0.00189742
0.00189894
0.00189976
0.00208994
0.00209176
0.00209262
0.00209218
0.00210987
0.00228201
0.00224834
0.00223493
0.0022311
0.00223032
0.00215013
0.00214601
0.00214119
0.00214371
0.00218466
0.00232271
0.00231804
0.00231201
0.00230927
0.00230812
0.00222947
0.00222939
0.00222921
0.00223226
0.00226039
0.00225657
0.00223636
0.00215414
0.00210189
0.00202325
0.0019899
0.00198761
0.00198937
0.00199055
0.00216931
0.00216979
0.00217301
0.00218421
0.00219942
0.00226777
0.00226159
0.00225541
0.00225463
0.00225586
0.00228773
0.0022858
0.00228253
0.00227786
0.00227819
0.00231027
0.00231996
0.00232464
0.0023249
0.00232424
0.00233991
0.00244612
0.00240893
0.00229115
0.002128
0.00202173
0.0020459
0.00205444
0.00205393
0.00205145
0.00218916
0.00218443
0.00218179
0.00218594
0.00219222
0.00223099
0.00224651
0.00225187
0.00225885
0.00226568
0.00215021
0.00215342
0.00215374
0.00214005
0.00209
0.00189304
0.00187278
0.00187149
0.00187787
0.00188406
0.00174193
0.00174622
0.0017491
0.00174055
0.00171391
0.00147734
0.00146638
0.00146013
0.00146049
0.00146258
0.00146609
0.00146249
0.00145902
0.00145998
0.00146705
0.0012158
0.00121072
0.00121286
0.00121922
0.00122526
0.00118894
0.00118855
0.00118967
0.00119203
0.00118898
0.00102013
0.00100802
0.00100933
0.00101163
0.00101379
0.00092936
0.000924035
0.000921015
0.000925144
0.000950589
0.00117936
0.00119479
0.00119733
0.00119172
0.00118481
0.00132424
0.00131891
0.00131425
0.00131742
0.00133885
0.00155886
0.00154281
0.00154165
0.00154582
0.00155068
0.0017381
0.00174323
0.00174766
0.00174347
0.00171641
0.00182593
0.00185108
0.00185754
0.00185783
0.0018576
0.00176644
0.00176915
0.00177037
0.00176703
0.00177367
0.00184616
0.00182473
0.00182614
0.0018306
0.00183451
0.00194533
0.00194575
0.00194562
0.00194226
0.00193374
0.00191952
0.00189978
0.0018971
0.001897
0.00189618
0.00210939
0.00211112
0.0021173
0.00212725
0.00213612
0.00188859
0.00186448
0.00186418
0.00186761
0.00186971
0.00192832
0.00192904
0.00192986
0.00192915
0.00192534
0.00192589
0.00190039
0.00189535
0.00189437
0.00189401
0.00204006
0.00204512
0.00205514
0.00207211
0.00208515
0.0021007
0.00206783
0.00205478
0.00204918
0.00204655
0.00185341
0.00185083
0.00184684
0.00184372
0.00185553
0.00187876
0.00186576
0.00186691
0.0018689
0.00186987
0.00210946
0.00211928
0.0021364
0.00216037
0.00216404
0.0022246
0.00224092
0.00222181
0.00220519
0.00219527
0.00220907
0.00221169
0.00221849
0.00223115
0.00223026
0.00231358
0.00230042
0.00229977
0.00229912
0.0023007
0.00207862
0.00207424
0.00206809
0.00206379
0.00206512
0.00193176
0.00194417
0.00198572
0.00200294
0.00201853
0.00203141
0.00206689
0.00206403
0.0020585
0.00203567
0.00215575
0.00215536
0.00215573
0.00215719
0.00213819
0.00212993
0.00212405
0.00212204
0.00213733
0.00214608
0.00205924
0.00210727
0.00198634
0.00188496
0.00213515
0.00207384
0.00201673
0.00194535
0.00179627
0.00191656
0.0019011
0.00180731
0.00185395
0.00184403
0.00193519
0.00196487
0.00191042
0.00195257
0.00197773
0.00191831
0.00183408
0.00194749
0.00191372
0.00177195
0.00180768
0.00190047
0.00185612
0.00180112
0.00191131
0.00163715
0.00145507
0.00129807
0.00121607
0.00119489
0.00119105
0.0011669
0.00111348
0.00104664
0.000970082
0.000887563
0.000796782
0.000702562
0.000605495
0.000689705
0.00067861
0.000677748
0.00067988
0.000681705
0.000815284
0.000826335
0.000838313
0.000845237
0.000840327
0.000898379
0.000900281
0.000897802
0.000892523
0.000887521
0.000840067
0.000849947
0.000860003
0.000865776
0.000875606
0.00110901
0.00106355
0.00105219
0.00105316
0.00105701
0.00120358
0.00121199
0.00121946
0.00121907
0.0012207
0.00150034
0.00147754
0.00146558
0.00146458
0.00146565
0.00166435
0.00166268
0.00166493
0.00167904
0.00171819
0.00155462
0.00156046
0.00156075
0.00155939
0.00155738
0.00151647
0.00152063
0.00152319
0.0015248
0.00154668
0.00187131
0.00185004
0.00183237
0.00182586
0.00182436
0.00189554
0.00189626
0.00190065
0.00191772
0.00197437
0.00168237
0.00168943
0.00169055
0.00169013
0.00168937
0.00171512
0.0017172
0.00171995
0.00172489
0.00174591
0.00197888
0.00197632
0.00195958
0.0019489
0.00194376
0.00192403
0.00192675
0.00193345
0.00195036
0.00199735
0.00172182
0.00171457
0.00171585
0.00171811
0.00171877
0.00178813
0.00178883
0.00178953
0.00178896
0.00178778
0.00186407
0.0018417
0.0018353
0.00183216
0.00183014
0.00205361
0.00206395
0.00208076
0.00210068
0.00209483
0.00177214
0.00177718
0.00178397
0.00178733
0.0017888
0.00183177
0.00182859
0.00182107
0.00180595
0.00178767
0.00180654
0.00182531
0.00184361
0.00185569
0.00186217
0.00195635
0.00194923
0.00193697
0.00191535
0.00188049
0.00178869
0.00183507
0.00185871
0.0018705
0.00187647
0.00213668
0.0021313
0.00212264
0.0021004
0.00202614
0.00219522
0.00223097
0.00223054
0.00222773
0.00222716
0.00210719
0.00211081
0.00211373
0.00210729
0.00203344
0.00204119
0.00205338
0.00206506
0.00212579
0.00211006
0.00209268
0.00207733
0.00208538
0.00210067
0.00210453
0.00210545
0.00234019
0.00233657
0.00233263
0.00231627
0.00221136
0.00200329
0.00206731
0.00206178
0.00191283
0.00188775
0.00206815
0.00205935
0.00188065
0.00195062
0.0021126
0.00214451
0.00215829
0.00216495
0.00217175
0.0020469
0.00203551
0.00201686
0.00199576
0.00228523
0.00230891
0.00230931
0.00230955
0.00219271
0.0021873
0.00217873
0.0021629
0.00214062
0.00229737
0.00229316
0.00229381
0.00228708
0.00228318
0.00230044
0.00229588
0.00229032
0.00227869
0.00233673
0.00204189
0.00205913
0.00206256
0.00206735
0.00207504
0.00208244
0.00216963
0.0021711
0.00217109
0.00215519
0.00206587
0.00209231
0.00210253
0.00211002
0.00205323
0.00204479
0.00203541
0.00202515
0.0019946
0.00190113
0.00183617
0.00205659
0.00199621
0.00200894
0.00200884
0.00193082
0.00191655
0.00191068
0.00207538
0.00199379
0.00189979
0.00191754
0.00197377
0.00189423
0.00196266
0.00194371
0.00191693
0.00164489
0.00128003
0.000908878
0.000642438
0.000542971
0.000602254
0.000735038
0.000838023
0.000847152
0.000764053
0.000634858
0.00055322
0.00048429
0.000451107
0.000393932
0.000416998
0.000402861
0.000395484
0.000388658
0.000383071
0.000451308
0.000452345
0.000456016
0.000466877
0.000501078
0.000545656
0.00053346
0.000527057
0.000518379
0.000509604
0.00065614
0.000658678
0.000664953
0.000681004
0.0007092
0.000911265
0.000867067
0.000846413
0.00083766
0.000833453
0.000947341
0.000954913
0.000961084
0.000963305
0.000976128
0.00131091
0.00127497
0.00125508
0.00124895
0.00124872
0.00144879
0.00145141
0.00145822
0.00147985
0.00155064
0.00129354
0.00130062
0.00130063
0.00129962
0.00129906
0.00133177
0.00133614
0.00133946
0.00134283
0.00136597
0.00173603
0.00171797
0.00169623
0.00168297
0.0016771
0.00173907
0.00174176
0.00174867
0.00176781
0.00182736
0.00146602
0.00147599
0.00147796
0.00147831
0.00147759
0.00157935
0.00158222
0.00158588
0.00159146
0.00160937
0.00186443
0.00186391
0.0018445
0.00182938
0.0018215
0.00184174
0.00184913
0.00186352
0.00188607
0.00189795
0.00198167
0.001952
0.00193212
0.00192059
0.00191485
0.00162029
0.00161863
0.00161239
0.00159969
0.00159131
0.00166951
0.00167756
0.00168782
0.00169434
0.00169689
0.00182059
0.00181774
0.00181393
0.00180948
0.00179499
0.00190646
0.00193405
0.00193933
0.0019406
0.00194114
0.00206274
0.00206211
0.00206048
0.00205381
0.0020207
0.0019986
0.00202698
0.00203324
0.00203522
0.00203538
0.0020724
0.00206399
0.00204966
0.00202504
0.00197996
0.00205637
0.00206172
0.00207189
0.0020802
0.00208525
0.00222838
0.00223346
0.00224093
0.0022414
0.00218577
0.002093
0.00218296
0.00219269
0.00219088
0.00218902
0.00210107
0.00209686
0.0020908
0.00208157
0.00203158
0.00214265
0.0021467
0.0021435
0.00214198
0.0021447
0.00212528
0.00198434
0.00200811
0.00197191
0.0020652
0.00219986
0.00183512
0.00200545
0.00221403
0.00186334
0.00220379
0.00293057
0.00205593
0.00218636
0.0022708
0.00255712
0.00202407
0.00164874
0.00114437
0.000720559
0.000440894
0.000377372
0.000473656
0.000623966
0.000721095
0.000703404
0.000602116
0.000485884
0.000396832
0.000366684
0.000327525
0.000429035
0.000433052
0.000429838
0.00042645
0.000424425
0.000327079
0.000333597
0.000337964
0.000338604
0.00034466
0.000590242
0.000582501
0.000564904
0.000550461
0.000541508
0.000782771
0.000792239
0.000804725
0.000816832
0.000834218
0.000770842
0.000753912
0.0007517
0.00074753
0.000742074
0.00113724
0.00114796
0.00116713
0.00119569
0.0012247
0.00138775
0.00135368
0.00133767
0.00132565
0.00131753
0.00125237
0.00125598
0.0012595
0.00126368
0.00128431
0.00166546
0.00164424
0.00161825
0.00160116
0.00159221
0.0016629
0.00166878
0.00167842
0.00169214
0.00171182
0.00134111
0.00132832
0.00133221
0.00133753
0.0013407
0.00146615
0.001466
0.00146567
0.00146609
0.00147805
0.00155724
0.00156078
0.00155958
0.00155658
0.00155402
0.00164904
0.00165732
0.00166616
0.00166559
0.0016308
0.00169202
0.00172693
0.00172359
0.00171194
0.00170054
0.00192954
0.00193701
0.0019484
0.00195196
0.00189943
0.0019159
0.00194546
0.00194903
0.00195007
0.00195009
0.00197215
0.00197084
0.0019664
0.00195542
0.00190774
0.00204858
0.00209396
0.0021063
0.00211233
0.00211601
0.00220025
0.00220157
0.00220265
0.00219807
0.00215626
0.00222529
0.00224621
0.00225131
0.00225643
0.00226063
0.00234086
0.0023467
0.00235518
0.00235122
0.00226648
0.00207744
0.00204518
0.00205558
0.00207633
0.00209127
0.00238913
0.00238539
0.00238018
0.00237169
0.00232668
0.00228369
0.00226817
0.00226794
0.00227248
0.0022758
0.0022496
0.00225549
0.00226242
0.00225511
0.0021802
0.00202673
0.00214049
0.00215046
0.00214359
0.0021368
0.00226888
0.0022753
0.00228654
0.00228082
0.00214969
0.00189639
0.00192208
0.00193416
0.00194252
0.00194756
0.00208794
0.00209178
0.0020941
0.00208446
0.00204518
0.00204257
0.00194369
0.00193657
0.00204449
0.00206035
0.00192649
0.00198402
0.0019942
0.0019981
0.0019995
0.00206806
0.00206967
0.00207163
0.0020703
0.00201208
0.00197761
0.00200419
0.00195354
0.00192051
0.00191167
0.00194524
0.00196137
0.00196637
0.00190593
0.00196186
0.00199806
0.00197594
0.00197702
0.00218838
0.00207065
0.00201886
0.00207115
0.00201983
0.00199495
0.00195705
0.00187773
0.00190448
0.00197123
0.00202039
0.00202472
0.00206691
0.00204409
0.00200345
0.00198892
0.00197679
0.00198572
0.00204399
0.0021024
0.00205157
0.00202333
0.00198307
0.00193645
0.00191988
0.00198343
0.00201404
0.00200647
0.00196035
0.00198669
0.0019884
0.00194162
0.00193655
0.0019785
0.00194947
0.00192253
0.00191269
0.00195098
0.00194646
0.00188244
0.00188264
0.00197318
0.00191755
0.00186048
0.00192963
0.0019419
0.00197854
0.0020177
0.00199248
0.00196145
0.0019356
0.00196376
0.00198757
0.0019287
0.00195386
0.00199993
0.00194897
0.00195608
0.00194317
0.00195257
0.00204844
0.00196196
0.00198248
0.00207995
0.00187614
0.00184643
0.00166486
0.00144625
0.00117916
0.000923336
0.000833972
0.000877635
0.00117138
0.00126504
0.00153669
0.00166784
0.00169008
0.00170151
0.00171009
0.00199836
0.00201364
0.00203083
0.00203961
0.00201279
0.00146279
0.00151017
0.00151818
0.00151865
0.00151547
0.00213841
0.00215829
0.00218383
0.00219774
0.00218304
0.00159672
0.00154871
0.00154374
0.00154658
0.00154721
0.00217736
0.00219728
0.00222705
0.00225895
0.0022511
0.00225298
0.00230119
0.00230118
0.00228913
0.0022779
0.00168064
0.00168258
0.00168054
0.00167539
0.00166387
0.00163728
0.00166518
0.00166185
0.00165831
0.00165529
0.00203131
0.00204043
0.00205338
0.00207439
0.00215697
0.00169631
0.00164086
0.00163595
0.00163809
0.00163735
0.00178183
0.00178389
0.00178727
0.00179704
0.00184156
0.00219998
0.00211504
0.00208726
0.0020752
0.00206823
0.00199282
0.00200048
0.002015
0.00204271
0.00207621
0.00214974
0.00206965
0.002048
0.00204097
0.00203795
0.00199974
0.0020035
0.00201377
0.0020371
0.00208005
0.00205012
0.00200673
0.00200113
0.00200331
0.00200603
0.00175804
0.00171635
0.00171174
0.00171194
0.00171075
0.00178409
0.00178471
0.0017842
0.00178648
0.00181256
0.00206482
0.00203378
0.00201342
0.00200446
0.00200187
0.00198023
0.0019776
0.0019777
0.00199243
0.00206141
0.00208108
0.00207936
0.00208279
0.00208321
0.00208226
0.00212538
0.00212533
0.00212496
0.00212223
0.0021146
0.00220423
0.00211816
0.00195402
0.00173903
0.00163585
0.00163104
0.00163342
0.0016308
0.00162647
0.0018473
0.00184829
0.00185222
0.00186926
0.00190435
0.00190494
0.0018858
0.00187806
0.00187865
0.0018809
0.00168992
0.00169524
0.00170018
0.00169652
0.0016841
0.00151261
0.00149182
0.00147968
0.00147561
0.00147446
0.00123673
0.0012366
0.00124029
0.00125534
0.00128591
0.00124055
0.00122247
0.00121617
0.00121625
0.00121765
0.00107668
0.00108554
0.0010946
0.00109722
0.00109227
0.00114774
0.00117992
0.00117967
0.00116862
0.0011575
0.000818937
0.000816089
0.000814571
0.000819055
0.000836833
0.000851903
0.00083301
0.000833296
0.000837987
0.000841656
0.000793124
0.000795138
0.000798123
0.000803569
0.000820034
0.000838612
0.000848402
0.000841843
0.000830815
0.000821841
0.00058988
0.00058769
0.000585713
0.000587338
0.000600472
0.000576551
0.000541825
0.000536107
0.00053672
0.000537895
0.000538
0.000541296
0.000545357
0.000550271
0.000563866
0.000556058
0.000548016
0.000540125
0.000530865
0.000522935
0.000569841
0.00057001
0.000572291
0.000582134
0.000614596
0.00074259
0.00070966
0.000699192
0.000697367
0.000697321
0.000611043
0.000534716
0.000570074
0.0005519
0.000544271
0.000538834
0.000534766
0.000453537
0.000447744
0.000475886
0.000478497
0.000475205
0.000469383
0.000464186
0.000457593
0.000455914
0.000455616
0.000461209
0.000490067
0.000444916
0.000441552
0.00043879
0.000434567
0.000430807
0.000372451
0.000372129
0.000372308
0.000374771
0.000386258
0.000333702
0.00032336
0.000320645
0.000322156
0.000323984
0.000365354
0.000367398
0.000371297
0.000381554
0.000408148
0.000433101
0.000423512
0.00041946
0.000412814
0.000406133
0.000550094
0.000553907
0.000562491
0.000579558
0.000605221
0.000819579
0.000772225
0.000753874
0.000744181
0.0007379
0.000774872
0.00078227