/*--------------------------------*- C++ -*----------------------------------*\
  =========                 |
  \\      /  F ield         | OpenFOAM: The Open Source CFD Toolbox
   \\    /   O peration     | Website:  https://openfoam.org
    \\  /    A nd           | Version:  7
     \\/     M anipulation  |
\*---------------------------------------------------------------------------*/
FoamFile
{
    version     2.0;
    format      ascii;
    class       volVectorField;
    location    "8.25";
    object      wallShearStress;
}
// * * * * * * * * * * * * * * * * * * * * * * * * * * * * * * * * * * * * * //

dimensions      [0 2 -2 0 0 0 0];

internalField   uniform (0 0 0);

boundaryField
{
    outlet1
    {
        type            calculated;
        value           uniform (0 0 0);
    }
    Wall
    {
        type            calculated;
        value           nonuniform List<vector> 
40276
(
(0.000426396 4.95337e-05 0.000168316)
(-0.0001869 -8.5961e-06 0.000415511)
(-0.000190626 -7.84025e-06 0.000407455)
(9.24115e-05 -7.70408e-06 0.000156846)
(7.97284e-05 2.27985e-05 0.000155973)
(8.36843e-05 5.87339e-05 0.000162562)
(9.86957e-05 4.24523e-05 0.00017123)
(0.000132341 3.68545e-05 0.000184211)
(0.000102412 2.57518e-05 0.000166068)
(9.95825e-05 6.35426e-06 0.000171215)
(0.000385685 3.82988e-05 0.000408776)
(0.000466222 1.56355e-05 0.000443227)
(0.000584934 4.01523e-05 0.00094023)
(0.000562706 3.84102e-05 0.000870623)
(0.000486459 -1.56129e-05 0.000333892)
(0.000434829 1.65564e-06 0.00036304)
(0.000393522 2.04986e-05 5.72526e-05)
(0.000351753 2.34809e-05 2.36073e-05)
(-0.000112321 -1.11604e-05 -0.00017342)
(-0.000121445 -3.78504e-05 -0.000193313)
(-0.000155525 3.92734e-05 0.000211368)
(-0.000186646 4.43216e-05 0.000198212)
(-0.000119955 3.22381e-05 6.77948e-05)
(-0.000138823 2.96493e-05 6.41087e-05)
(-0.00010005 2.37108e-05 4.32325e-05)
(-0.000112309 2.47571e-05 3.7449e-05)
(-0.000123713 4.10232e-05 2.18786e-05)
(-0.000121179 4.14459e-05 1.60033e-05)
(-0.0001819 5.87335e-05 3.28842e-05)
(-0.000163263 5.03983e-05 2.39784e-05)
(-0.000120541 3.9297e-05 7.10615e-05)
(-0.000134888 4.70995e-05 7.84531e-05)
(-5.25612e-05 -3.17527e-06 0.000159645)
(-4.68046e-05 -4.86357e-06 0.000148374)
(-6.26543e-05 1.0286e-05 8.10736e-06)
(-6.15159e-05 1.16807e-05 7.65535e-06)
(0.000565976 6.6396e-05 0.000215671)
(0.000615306 4.83337e-05 0.000238879)
(0.00105504 0.000255267 0.000404268)
(0.00119273 0.000327285 0.000425596)
(0.000990124 6.36947e-05 0.000164741)
(0.000951147 3.60384e-05 0.000191863)
(-5.04287e-05 -1.42714e-05 -0.000384946)
(-3.05037e-05 -1.08166e-05 -0.000348676)
(-5.34922e-05 -2.15608e-06 -0.000350283)
(-4.50483e-05 -6.12462e-06 -0.000287516)
(-7.3611e-05 -3.87938e-07 -0.000295565)
(-5.62535e-05 -3.16566e-06 -0.000238229)
(-6.49447e-05 -8.27231e-07 -0.000204735)
(-6.31089e-05 1.02834e-06 -0.000169868)
(-5.16696e-05 -1.13923e-06 -0.000138843)
(-6.36218e-05 1.32718e-06 -0.000145724)
(-5.48733e-05 -1.69352e-07 -0.000115865)
(-5.80166e-05 2.15735e-06 -0.000117271)
(0.000441674 8.13043e-05 0.000261471)
(0.000459897 9.53437e-05 0.000230669)
(-1.69312e-05 1.30436e-05 0.000130471)
(6.4124e-05 2.20058e-05 0.000191108)
(-9.79163e-06 8.43774e-06 0.000133082)
(-0.000452873 -0.000151593 -0.000433344)
(-0.000482178 -0.000126219 -0.000443905)
(1.90629e-05 3.45503e-05 0.000291582)
(-1.27959e-05 -1.18212e-05 0.000225377)
(1.06024e-05 -1.06331e-06 -4.72517e-05)
(1.34266e-05 2.8992e-06 -4.42017e-05)
(6.66137e-06 -1.32129e-08 -4.31866e-05)
(2.02296e-06 -2.71767e-06 -4.16982e-05)
(1.15976e-05 5.73755e-08 -4.41746e-05)
(-0.000116678 -1.91651e-05 -0.000106194)
(-0.000128637 -8.66145e-06 -0.000115305)
(-5.24209e-05 4.18007e-06 -9.53541e-05)
(-5.33517e-05 1.0153e-07 -9.70962e-05)
(-1.74733e-05 1.30876e-06 -1.76679e-05)
(-1.74604e-05 1.32634e-06 -1.74763e-05)
(-1.58233e-05 1.38214e-06 -1.71798e-05)
(-1.49598e-05 1.68831e-06 -1.6543e-05)
(-1.7065e-05 7.70409e-07 -1.69994e-05)
(2.35816e-05 -1.71352e-06 -5.62705e-06)
(2.04624e-05 -1.7732e-06 -9.43712e-06)
(-1.01883e-06 4.42324e-06 2.87274e-07)
(-2.87622e-07 -2.28555e-07 2.16361e-07)
(7.66493e-06 -1.15435e-06 -4.03569e-07)
(1.85657e-05 6.41503e-08 1.27535e-05)
(1.80055e-05 2.95961e-07 1.30917e-05)
(2.85942e-05 -1.49254e-06 2.01236e-05)
(5.84696e-06 5.1012e-07 -3.83065e-05)
(1.43572e-06 -1.88244e-06 -3.66679e-05)
(4.68179e-06 9.7547e-07 -3.35493e-05)
(2.58026e-05 -1.72402e-06 1.86496e-05)
(2.46646e-05 -1.27427e-06 1.77811e-05)
(2.11638e-05 -7.00456e-07 1.57447e-05)
(-4.45176e-05 -4.62567e-06 -4.02881e-05)
(4.4588e-07 -1.17454e-06 -3.21884e-05)
(3.54746e-06 1.28739e-06 -2.94935e-05)
(-2.43826e-07 -5.91429e-07 -2.84451e-05)
(-9.07248e-07 -3.37605e-07 -2.49866e-05)
(-1.5097e-06 5.43823e-08 -2.19859e-05)
(-2.32636e-06 2.17845e-07 -1.99171e-05)
(-5.68728e-06 -3.30364e-07 -1.60494e-05)
(-6.34442e-06 -1.24868e-07 -1.51372e-05)
(-7.17751e-06 1.04728e-09 -1.4754e-05)
(-1.01786e-05 -2.95941e-07 -1.47755e-05)
(-1.04005e-05 -2.16701e-07 -1.5155e-05)
(-4.99813e-05 -9.89262e-07 -4.38471e-05)
(-1.06751e-05 -3.10672e-08 -1.59882e-05)
(-1.89054e-05 -3.5344e-06 -2.30735e-05)
(-1.5756e-05 -3.51232e-06 -1.84385e-05)
(-1.0525e-05 -1.26762e-07 -1.65561e-05)
(-1.04356e-05 3.81741e-08 -1.75712e-05)
(-1.00595e-05 -5.73288e-07 -1.79005e-05)
(-1.0244e-05 4.24179e-08 -1.90124e-05)
(-9.70889e-06 -6.32922e-07 -1.97683e-05)
(-9.11842e-06 -2.774e-07 -2.0177e-05)
(-8.88193e-06 -1.07964e-06 -2.17061e-05)
(-8.55131e-06 -1.69726e-06 -2.03433e-05)
(4.1724e-06 -8.91032e-07 -2.64903e-05)
(4.04975e-06 -2.89895e-06 -2.78251e-05)
(2.59474e-06 -2.90737e-06 -2.62554e-05)
(-0.000277125 -6.29582e-05 0.000486887)
(-0.000280191 -6.14563e-05 0.000441474)
(-1.51875e-05 -1.24518e-06 5.38535e-06)
(-1.26107e-05 -1.41667e-06 6.57076e-06)
(-4.18081e-05 -1.76772e-06 1.61879e-05)
(-3.62085e-05 -3.10133e-06 1.50596e-05)
(-4.37807e-06 -8.2568e-06 -5.41962e-06)
(-2.07345e-06 -8.14998e-06 -2.66689e-06)
(-0.000127364 2.51978e-05 0.000183878)
(-0.000110601 3.3911e-05 0.000156403)
(-0.000160186 -1.78687e-05 0.000274273)
(-0.000139961 -2.3934e-05 0.000236095)
(-0.000102811 -6.2178e-06 0.000172622)
(-8.995e-05 -9.2712e-06 0.00014857)
(-0.000156106 9.36095e-05 0.000466124)
(-0.000216272 0.000169292 0.00065123)
(7.29844e-06 -1.1829e-05 0.000188532)
(-1.3743e-06 -4.57031e-06 0.000159337)
(-0.000102173 2.75817e-05 0.000192929)
(-5.58223e-05 1.34089e-06 0.000167353)
(-0.000179871 -5.7384e-05 0.000490084)
(-0.000179486 -4.05529e-05 0.000490816)
(-0.000179351 -4.54208e-05 0.000525144)
(-0.000195005 -2.16724e-05 0.000526614)
(-0.000559733 1.74996e-06 -0.000151379)
(-0.000642303 2.46455e-06 -0.000183557)
(-2.27552e-05 -7.96787e-05 9.95787e-06)
(-2.65495e-05 -7.89426e-05 1.19239e-05)
(-2.14403e-05 -4.38709e-05 6.54928e-05)
(-2.52047e-05 -5.36599e-05 8.18335e-05)
(-2.90447e-05 -5.25554e-05 6.60909e-05)
(-2.32139e-05 -4.04588e-05 5.3752e-05)
(-1.54685e-05 -8.61463e-05 8.48782e-06)
(-1.98958e-05 -9.83539e-05 6.53325e-06)
(-2.34947e-05 -8.34769e-05 8.81933e-06)
(-2.18825e-05 -8.64846e-05 9.21271e-06)
(-2.31358e-05 -0.000128636 -1.56103e-05)
(-1.99742e-05 -0.000111411 -1.41258e-05)
(-7.64289e-06 -5.66219e-05 -3.31689e-06)
(-9.87877e-06 -5.05372e-05 -4.75771e-06)
(-6.0987e-05 -3.12483e-05 9.45571e-05)
(-5.57752e-05 -3.30742e-05 8.93575e-05)
(9.03912e-05 3.80396e-06 -0.000233532)
(9.85498e-05 -5.12343e-06 -0.000218228)
(-0.000137159 -5.95234e-05 -1.25083e-05)
(-0.000135983 -6.65128e-05 -1.47031e-05)
(-0.000298112 -4.79872e-05 0.000147184)
(-0.00031999 -5.2119e-05 0.00013861)
(-0.000291677 -7.47118e-05 -2.60556e-05)
(-0.000285059 -6.19176e-05 -3.52653e-05)
(-0.000174273 0.000192918 0.000237279)
(-0.000168166 0.000241485 0.000220392)
(-0.000248994 -4.48367e-05 1.31686e-05)
(-0.000131123 -4.67521e-05 -1.84846e-05)
(-0.00020677 -7.74677e-05 7.46851e-05)
(-0.000178147 -7.58894e-05 6.31549e-05)
(-0.000227638 -5.18988e-05 5.88278e-05)
(-6.74138e-05 -4.22689e-05 -7.10715e-06)
(-3.91066e-05 -2.09141e-05 6.0507e-05)
(-3.22268e-05 -1.93922e-05 5.58608e-05)
(0.000542784 -0.000211699 0.000411218)
(0.000498881 -0.00018653 0.000343609)
(0.000478449 -0.000264815 0.00022748)
(0.000453277 -0.000196996 0.000257814)
(0.000461671 -0.000227711 0.000256282)
(0.000229827 -0.000145114 0.000185341)
(0.000324163 -0.00020293 0.000216403)
(0.000253602 -0.000147357 0.000200049)
(0.000421815 -0.000188561 0.000347373)
(0.000443777 -0.000230835 0.000330567)
(0.000439153 -0.000226896 0.000288002)
(0.000337523 -0.000222775 0.000188912)
(0.000441657 -0.000274149 0.000188679)
(0.000368053 -0.000200866 0.000242892)
(0.000137757 -6.77681e-05 0.0001603)
(0.00022329 -0.000146452 0.000185101)
(0.000171903 -8.43879e-05 0.000180307)
(0.000127373 -5.22663e-05 0.000164507)
(7.33532e-05 4.90828e-05 0.000155954)
(0.000288276 0.000112736 4.05533e-05)
(0.000349901 0.000111878 9.25523e-05)
(0.000299086 7.47082e-05 0.000105301)
(0.000316747 5.9375e-05 4.39195e-05)
(0.000377461 6.32866e-05 9.57863e-05)
(0.000340974 9.97783e-05 8.61926e-05)
(0.000306177 7.45938e-05 6.3333e-05)
(9.73316e-05 5.488e-05 8.41668e-05)
(0.000114596 6.56115e-05 8.36999e-05)
(9.01449e-05 1.31777e-05 0.000137017)
(9.45593e-05 1.91218e-05 0.000135599)
(0.000107332 1.11438e-05 0.000158984)
(8.88479e-05 1.80371e-06 0.000143286)
(0.000100307 3.56872e-05 0.000132835)
(8.05448e-05 3.6518e-05 0.000101166)
(7.87082e-05 4.00237e-05 7.38732e-05)
(7.27729e-05 2.07101e-05 9.14607e-05)
(6.63287e-05 9.52728e-06 0.000106632)
(5.1268e-05 1.6759e-06 8.45789e-05)
(6.50562e-05 -3.40684e-06 0.000102757)
(5.59907e-05 1.81091e-05 7.1326e-05)
(4.83666e-05 1.59729e-05 6.09066e-05)
(5.19886e-05 1.45947e-05 6.93877e-05)
(0.000154418 9.35536e-05 4.28207e-05)
(0.000186461 0.000103488 6.24268e-05)
(0.000190787 9.34515e-05 7.36497e-05)
(0.00018275 8.8371e-05 4.2488e-05)
(0.000113527 6.76865e-05 7.15666e-05)
(0.000130989 7.69555e-05 4.6893e-05)
(0.000140091 8.27636e-05 2.6743e-05)
(0.000142734 7.04538e-05 3.82937e-05)
(0.000124363 6.82847e-05 4.28325e-05)
(0.00027182 0.000111532 3.31865e-05)
(0.000223888 0.00010599 3.07227e-05)
(0.000288774 0.000102451 4.74286e-05)
(0.000262668 7.44208e-05 3.25742e-05)
(0.000234684 9.80454e-05 1.9102e-05)
(0.000214903 7.3795e-05 2.52244e-05)
(8.0574e-05 4.86071e-05 5.04849e-05)
(8.68358e-05 4.64339e-05 5.64171e-05)
(6.91326e-05 3.45868e-05 6.30463e-05)
(0.000106173 6.54278e-05 4.37768e-05)
(5.95781e-05 2.8416e-05 5.51028e-05)
(7.15239e-05 4.42945e-05 3.41534e-05)
(0.000117879 6.4224e-05 5.35903e-05)
(0.000154642 8.06451e-05 2.21327e-05)
(7.68559e-05 5.17346e-05 7.37151e-06)
(8.92694e-05 4.91229e-05 2.54e-05)
(7.81497e-05 5.07868e-05 1.95695e-05)
(0.000141112 8.35885e-05 5.17747e-06)
(0.00017262 8.72182e-05 -1.66004e-05)
(0.000156188 6.07887e-05 2.11011e-05)
(0.000151679 7.49587e-05 8.39393e-06)
(0.000315206 2.8418e-05 0.000551099)
(0.000353271 5.7341e-05 0.00064061)
(0.000321207 -1.30808e-06 0.000572986)
(0.000332902 2.90211e-05 0.000589163)
(0.0003536 9.88361e-05 0.000392337)
(0.000381835 0.000103948 0.000465681)
(0.00027374 9.40565e-05 0.000383156)
(0.000298566 8.82564e-05 0.000438577)
(0.000294593 0.000105953 0.000439885)
(0.000276012 8.76642e-05 0.000452244)
(0.000391083 0.000156487 0.000504565)
(0.000327765 0.000132345 0.00037866)
(0.000372843 0.000137839 0.000471675)
(0.000237279 8.98413e-05 0.000384212)
(0.000317829 0.000115567 0.000479833)
(0.000404138 0.000129138 0.000380914)
(0.000363227 0.000134489 0.000450277)
(0.000355792 0.000131078 0.00045086)
(0.000410548 0.000135591 0.000560987)
(0.000426043 0.000169635 0.000495941)
(0.000469196 0.000183652 0.000493342)
(0.000461825 0.000191951 0.000466134)
(0.000451027 0.000159019 0.00055691)
(0.000435585 0.000163594 0.000556777)
(0.000395569 7.23849e-05 0.000461024)
(0.000506873 7.78711e-05 0.000492658)
(0.00038857 9.14783e-05 0.000474443)
(0.000301401 9.36514e-05 0.000371694)
(0.000380408 9.01542e-05 0.000463627)
(0.00041572 7.00883e-05 0.000404175)
(0.000311959 5.54355e-05 0.000303933)
(0.000337282 0.000101246 0.000365042)
(0.00036142 8.32295e-05 0.000353618)
(0.000365632 9.3303e-05 0.000345491)
(0.000488887 -4.15905e-05 0.000427708)
(0.000503125 -5.93949e-05 0.000425394)
(0.000514353 -0.000136906 0.000413442)
(0.000402625 -6.22676e-05 0.000369187)
(0.00048418 -0.000117406 0.000325178)
(0.000380364 -9.25507e-06 0.000339813)
(0.000527935 -0.000127509 0.00035387)
(0.000362112 -2.78165e-05 0.00029236)
(0.000466813 -9.76735e-05 0.000284705)
(0.000545284 -0.000206072 0.000270745)
(0.000341369 5.75814e-05 0.000354751)
(0.00034097 8.55887e-05 0.000372947)
(0.000380166 2.4725e-05 0.000311103)
(0.00037789 6.39679e-05 0.000328585)
(0.000395171 0.000142102 0.000376623)
(0.000429608 0.000148145 0.00050906)
(0.000427406 0.000146085 0.00045641)
(0.000441586 0.000127071 0.000370815)
(0.000497284 0.00016215 0.000414687)
(0.0004969 0.000190016 0.000522972)
(0.000447322 0.00015847 0.000522101)
(0.000472488 0.000155896 0.00055112)
(0.000471394 0.000172323 0.000397588)
(0.000451449 0.000158848 0.000523705)
(0.000451653 0.000163995 0.000522369)
(0.00057263 0.000208419 0.000656521)
(0.000546041 0.000195816 0.000512433)
(0.000401606 0.000116612 0.000368762)
(0.000569501 0.000179427 0.000420736)
(0.000452179 0.00010435 0.000392626)
(0.00058128 0.000146859 0.000398921)
(0.000513361 0.000178056 0.000439259)
(0.000518046 0.000162881 0.000510908)
(0.000694397 0.000261665 0.000523621)
(0.000550059 0.000186834 0.000433106)
(0.000525327 0.000159582 0.000456342)
(0.000734824 0.000258621 0.00048363)
(0.000568075 0.000245663 0.000484051)
(0.000604497 0.000209288 0.000591578)
(0.000559818 0.000182185 0.000624792)
(0.000662661 0.000226119 0.000620813)
(0.000660185 0.000231395 0.000599461)
(0.000350223 0.000140542 0.000455982)
(0.000341735 0.000131262 0.000450185)
(0.000234988 7.06545e-05 0.000425275)
(0.000338737 0.00012872 0.000488331)
(0.0004261 0.000121444 0.00063208)
(0.000389777 0.000111836 0.000580429)
(0.000378435 0.000146701 0.00049187)
(0.000397946 0.000154665 0.000510851)
(0.000381081 0.000147735 0.000560049)
(0.000362449 6.25298e-05 0.00064797)
(0.000313143 4.33208e-05 0.00057978)
(0.000367648 0.000108888 0.000607773)
(0.000350417 9.55801e-05 0.000603221)
(0.000313463 4.2685e-05 0.000507418)
(0.000424469 0.000170798 0.000538179)
(0.000449302 0.000139268 0.000627745)
(0.000400851 0.000122773 0.000610926)
(0.000386431 -4.85835e-06 0.000637927)
(0.00047591 0.000144549 0.000711256)
(0.000357789 5.98953e-05 0.000604756)
(0.000463598 0.000186598 0.000524174)
(0.000502493 0.000195428 0.000562536)
(0.000447588 0.000141364 0.000624557)
(0.00043838 0.000175921 0.000559635)
(0.000506564 0.000204865 0.000563373)
(0.000503362 0.000127562 0.000695178)
(0.000513687 0.000145103 0.000782516)
(0.000409483 4.81932e-05 0.000674487)
(0.000375658 4.62703e-05 0.000614941)
(0.000407583 7.80039e-05 0.00064904)
(0.000462881 0.000130195 0.00068995)
(0.000395201 7.46973e-05 0.000607381)
(0.00051414 0.000219811 0.000602214)
(0.000512867 0.000105965 0.000750016)
(0.000592858 0.000191807 0.000852512)
(0.000282241 1.17271e-05 0.000492799)
(0.00029343 5.54923e-05 0.000501559)
(0.00035795 0.000131879 0.000560066)
(0.000376745 8.38445e-05 0.00063811)
(0.000355053 2.62805e-05 0.000588774)
(0.000437916 9.36848e-05 0.000695473)
(0.000336097 -1.21516e-05 0.000568323)
(0.000338145 4.03601e-05 0.000559545)
(0.000431484 0.000143505 0.000678348)
(0.00036015 4.59306e-05 0.000612886)
(0.000315029 3.71442e-05 0.000528661)
(0.000383389 -4.67203e-06 0.000632633)
(0.000333013 4.29472e-05 0.000559318)
(0.000354089 4.60378e-05 0.000583869)
(0.000430429 4.28883e-05 0.000703217)
(0.000336355 8.75419e-05 0.000578447)
(0.000335253 5.99407e-05 0.000565204)
(0.000427694 -5.75961e-05 0.000655687)
(0.000479229 0.000129211 0.00075445)
(0.000412206 -2.12609e-05 0.000693931)
(0.000524457 6.56571e-05 0.000857585)
(0.000400388 1.27958e-05 0.000668903)
(0.000420624 3.54915e-05 0.000685329)
(0.000529897 0.000160076 0.000769495)
(0.000424808 5.37538e-05 0.000679177)
(0.00048555 3.53578e-05 0.000773074)
(0.000523191 4.52312e-05 0.000857379)
(0.000533288 1.93922e-05 0.000856148)
(0.000420636 3.56598e-05 0.000674186)
(0.000475681 4.16045e-05 0.000754797)
(0.000425331 1.50658e-05 0.00067551)
(0.000485255 4.92221e-05 0.00076798)
(0.000547645 0.000176331 0.000684658)
(0.000535967 0.000192989 0.000612396)
(-2.10038e-05 -4.91089e-05 0.000160199)
(0.000566439 0.00015469 0.00077486)
(0.000492689 0.000140239 0.000663588)
(0.000615777 0.000228 0.000663649)
(0.00057491 0.000222213 0.000599796)
(0.00061018 0.00021511 0.000673545)
(-2.52613e-05 -4.87845e-05 0.000159639)
(0.00054409 0.000173533 0.000710212)
(0.000564032 0.000208984 0.000656996)
(0.000611251 0.000229832 0.00068496)
(0.000556086 0.000168756 0.00076434)
(0.000625323 0.00017882 0.000912374)
(-2.29022e-05 -4.85662e-05 0.000156919)
(0.000469171 7.29608e-05 0.000727655)
(0.000433666 6.34537e-05 0.000710402)
(0.000467404 9.73703e-05 0.000705618)
(0.000526924 5.99961e-05 0.000795789)
(0.000464331 0.000107513 0.000702726)
(-2.53718e-05 -3.80793e-05 0.000159932)
(0.000576205 0.000236667 0.000662808)
(0.000594773 0.000121889 0.000836948)
(0.000682128 0.000217283 0.000929904)
(0.000656345 0.000219556 0.000773136)
(0.000715081 0.000252565 0.000647736)
(0.00077185 0.000284991 0.00065575)
(0.000645969 0.000191002 0.000832797)
(0.000604461 0.000175832 0.000745274)
(0.000633709 0.000257854 0.000626382)
(0.000667424 0.000237503 0.000678508)
(0.000642198 0.000204047 0.000758674)
(0.000711737 0.000245415 0.000809242)
(0.000736834 0.000283349 0.000775807)
(0.000657634 0.000204947 0.000836275)
(0.000684815 0.000171925 0.000940302)
(0.000561797 0.000138014 0.000782874)
(0.00062601 0.000139915 0.000973862)
(0.000509464 0.000105257 0.00075169)
(0.000587155 8.11542e-05 0.000888315)
(0.000729889 0.000241454 0.000924958)
(0.000606118 0.000196611 0.00076545)
(0.000644898 0.000168813 0.000920139)
(0.000537021 8.98628e-05 0.00086649)
(0.000556832 0.000150347 0.000787712)
(0.000728307 0.000132176 0.00102233)
(0.000640564 0.000146555 0.000994339)
(0.000591173 6.60289e-05 0.000949195)
(0.000592581 1.99692e-05 0.000943928)
(0.000474728 2.941e-05 0.000787879)
(0.000467313 6.59503e-05 0.000733474)
(0.000601936 0.000119908 0.000871169)
(0.000614391 0.000126599 0.000960184)
(0.00057731 2.76973e-05 0.000904452)
(0.000593193 3.83148e-05 0.000934347)
(0.000602529 -3.94327e-05 0.00093653)
(0.000584115 3.88354e-05 0.000894231)
(0.00066884 0.000132051 0.00097114)
(-3.13448e-05 -4.31775e-05 0.000168318)
(0.000500886 -2.24841e-06 0.000820594)
(0.000455874 5.67369e-05 0.000718021)
(0.000649259 0.000150116 0.000956761)
(0.000675971 0.00018989 0.00101317)
(0.00056481 -1.70752e-06 0.000943937)
(0.000702863 6.26842e-05 0.00111015)
(0.000525886 4.11723e-05 0.000827567)
(0.000649447 2.9575e-05 0.000996297)
(0.000519107 5.19408e-05 0.000821413)
(0.000500067 -1.93167e-05 0.00076171)
(0.0006424 -9.03902e-05 0.000952483)
(0.000688061 3.17809e-05 0.00109075)
(0.000688884 2.67341e-07 0.00107989)
(0.000368067 -5.07712e-05 0.000535785)
(0.00029008 2.01046e-05 0.000450231)
(0.000324953 9.86053e-06 0.000466927)
(0.000314435 1.00494e-05 0.000481449)
(0.000226128 4.09726e-05 0.000404492)
(0.000300448 2.8278e-05 0.000465728)
(0.000384127 3.18013e-06 0.000499561)
(0.000301241 4.68576e-05 0.000471019)
(0.000349884 4.50141e-05 0.000621646)
(0.000351541 6.21315e-05 0.00059628)
(-2.31149e-05 -4.18177e-05 0.000153499)
(-2.67824e-05 -4.38502e-05 0.000160396)
(-2.4783e-05 -4.05172e-05 0.000148578)
(-2.62654e-05 -3.68394e-05 0.00014944)
(0.000392648 3.3266e-05 0.000614455)
(0.000355316 7.55826e-05 0.000563424)
(0.000423247 1.48644e-05 0.000568121)
(0.00037981 3.2223e-05 0.000510877)
(0.000397879 -1.31853e-05 0.000513628)
(0.000394561 3.89567e-06 0.000484806)
(-2.97068e-05 -3.62297e-05 0.000154814)
(0.000416687 1.98593e-06 0.000536813)
(-3.5029e-05 -2.89027e-05 0.000164889)
(-3.01223e-05 -3.46113e-05 0.000155906)
(0.000447631 1.16117e-05 0.000222786)
(0.000445124 1.56449e-05 0.000271139)
(0.000423982 -1.46131e-05 0.000257432)
(-3.3462e-05 -3.44554e-05 0.000153933)
(-2.65149e-05 -3.83327e-05 0.00016456)
(-2.59109e-05 -4.18719e-05 0.000161105)
(-3.23138e-05 -3.37768e-05 0.000174996)
(-3.38545e-05 -4.23134e-05 0.0001826)
(-2.96978e-05 -3.03008e-05 0.000166611)
(-2.8562e-05 -2.62533e-05 0.000159415)
(-3.4659e-05 -3.44933e-05 0.000159003)
(0.000396322 6.35029e-05 7.16732e-05)
(0.000457355 6.41043e-05 0.000137319)
(0.000376207 3.26993e-05 7.98758e-05)
(0.000361602 6.63904e-05 5.76988e-05)
(0.000376906 4.67201e-05 8.12958e-05)
(0.00043834 1.06113e-05 0.000125304)
(0.000423991 1.20006e-05 0.000187374)
(0.000450098 -3.10341e-05 0.000195677)
(0.000443933 2.14396e-08 0.00016189)
(0.000424048 -9.18519e-07 0.000204031)
(0.00041294 2.83531e-05 8.83332e-05)
(0.000430669 -9.14297e-06 9.48949e-05)
(0.000437738 -9.39005e-06 0.000386517)
(0.000415512 5.41796e-06 0.000421386)
(0.000401992 -2.38274e-06 0.000438315)
(0.000363947 5.52025e-06 0.000421458)
(0.000395264 3.20365e-06 0.000462829)
(0.000332433 2.47664e-05 0.000430417)
(0.000463969 -5.19951e-06 0.000415435)
(0.000470126 -2.60605e-05 0.000355645)
(0.00047422 -1.55435e-05 0.000341094)
(0.000414466 -4.99513e-06 0.000354908)
(0.000393735 -2.32677e-05 0.000444541)
(0.00040923 -1.50642e-05 0.000399521)
(0.000435182 2.22216e-05 0.000515675)
(0.00050331 -3.6696e-05 0.000248082)
(0.000463892 -5.24915e-05 0.000333091)
(0.000474862 -5.36977e-05 0.000280017)
(0.00048833 -3.49679e-05 0.000353989)
(0.000523436 -8.83419e-05 0.00022816)
(0.000462082 -5.04082e-05 0.000385892)
(0.000429451 -4.42103e-05 0.000449145)
(0.000469468 -7.19928e-05 0.000430389)
(0.00047326 -1.59911e-05 0.000520214)
(0.000554858 -0.000103547 0.000408937)
(0.000513446 -0.000103217 0.000337192)
(0.000525698 -9.3124e-05 0.000273648)
(0.000510386 -6.99078e-05 0.000343571)
(0.000457318 -5.02898e-05 0.000176982)
(0.000454425 -4.10684e-05 0.000141112)
(0.000486248 -4.43205e-05 0.000181665)
(0.000333525 7.50037e-05 2.78987e-05)
(0.000343373 5.71307e-05 5.48893e-05)
(0.000296611 8.38775e-05 6.7614e-06)
(0.000320443 6.98148e-05 2.52954e-05)
(0.000364367 3.09927e-05 4.70164e-05)
(0.000409327 -1.91036e-06 6.95882e-05)
(0.000336242 4.53821e-05 4.63161e-05)
(0.000227543 8.28011e-05 -4.01366e-06)
(0.000309526 8.95775e-05 1.26862e-05)
(0.000144077 7.07751e-05 3.72036e-05)
(0.000154676 6.75498e-05 1.33933e-05)
(0.000256469 9.72306e-05 6.76173e-06)
(0.000270457 7.19213e-05 4.19556e-05)
(0.000248695 3.98702e-05 -1.74612e-05)
(0.000291372 4.8455e-05 2.62757e-05)
(0.000350275 3.7787e-05 1.81813e-05)
(0.000246549 7.68033e-05 5.19679e-06)
(0.000235859 5.48473e-05 1.01639e-05)
(0.000313639 5.44336e-05 1.65518e-05)
(0.000587512 -0.000138603 0.000193163)
(0.000570708 -0.000141851 0.000348133)
(0.000558227 -0.0001392 0.000275126)
(0.000583021 -0.000128164 0.000352584)
(0.00046552 -3.06001e-05 0.0001087)
(0.000507852 -0.000104113 0.000172962)
(0.000467376 -5.45519e-05 0.000150704)
(0.000471754 -7.58657e-05 0.000153703)
(0.000421975 -1.79068e-05 6.62822e-05)
(0.000457558 -5.98023e-05 0.000100615)
(0.000543984 -0.000111594 0.000137315)
(0.000588211 -0.000130975 0.00017185)
(0.000616334 -0.000199227 0.000242327)
(0.000578586 -0.000138132 0.000164724)
(0.000553642 -0.0001474 0.00019479)
(0.000386307 1.62363e-05 4.0298e-05)
(0.00039752 -8.54168e-06 3.89665e-05)
(0.000427234 -5.81892e-05 9.56148e-05)
(0.000399058 -8.47576e-06 6.89626e-05)
(0.000415165 -3.63236e-05 5.76442e-05)
(0.000328112 3.33654e-05 4.44259e-05)
(0.000375112 -5.18386e-06 4.09993e-05)
(0.000552742 -0.000103537 9.88707e-05)
(0.000583517 -0.000159128 0.000116092)
(0.000602643 -0.000159101 0.000107933)
(0.000465607 -7.02838e-05 0.000109158)
(0.000428489 -3.27418e-05 0.000122264)
(0.000477672 -6.99378e-05 8.83126e-05)
(0.000308387 5.44387e-05 0.000527017)
(0.000326986 3.56051e-05 0.000543703)
(0.000370122 -1.53104e-05 0.000580696)
(0.000368822 7.30719e-06 0.000572753)
(0.000314941 7.37115e-05 0.000532001)
(0.000357089 7.3979e-06 0.000540833)
(0.00045615 -2.70096e-05 0.000680389)
(0.000326831 2.80286e-05 0.000534468)
(0.000358242 1.51453e-05 0.000553699)
(0.000415225 2.54957e-05 0.00063931)
(0.000406659 -1.34531e-05 0.000563475)
(0.000373862 1.06489e-05 0.000527355)
(0.000418409 1.62182e-05 0.000599034)
(0.000485412 -1.87851e-05 0.000689384)
(0.000491849 1.89626e-05 0.000809711)
(0.000369178 4.86958e-05 0.000591527)
(0.000423328 4.88229e-05 0.000684915)
(0.000405746 5.08568e-05 0.000678873)
(0.000434055 1.90014e-06 0.000665973)
(0.000575882 -6.94283e-05 0.000813709)
(0.000532698 -0.000117862 0.000710187)
(0.000441359 6.16766e-05 0.000717986)
(0.000461559 -1.62459e-05 0.000679102)
(0.000414381 3.85092e-06 0.000582553)
(0.0004683 5.44984e-06 0.000665788)
(0.000456873 -4.21689e-05 0.000567686)
(0.000414422 -3.34745e-05 0.000492101)
(0.000464935 -1.52267e-05 0.000591176)
(-3.62049e-05 -2.99872e-05 0.000160881)
(0.000531759 -0.000114224 0.000632637)
(0.000503 -8.27603e-05 0.000534117)
(0.000546344 -3.2813e-05 0.000662766)
(0.000431959 -2.63424e-05 0.000616017)
(0.000501768 -6.00906e-05 0.000633897)
(0.00056971 -4.65639e-05 0.000743488)
(0.000520557 -0.00011122 0.000521148)
(0.000514133 -0.000103677 0.000435544)
(0.000498574 -4.66412e-05 0.000541462)
(0.000635683 -4.32026e-05 0.000968971)
(0.000444713 2.80887e-06 0.000679384)
(-3.63533e-05 -2.58183e-05 0.000148704)
(0.000474933 -2.60098e-05 0.000676527)
(0.00054945 -1.66735e-05 0.000801049)
(0.000620793 -9.31956e-05 0.000870502)
(0.000636041 -0.000137752 0.000803866)
(0.000467939 -7.11397e-05 0.00057932)
(-4.14689e-05 -2.12609e-05 0.000160457)
(0.000581568 -0.000216059 0.000533149)
(0.000604282 -8.57842e-05 0.000721722)
(0.00061102 -0.000106733 0.000826622)
(0.000542143 -0.000114604 0.000677856)
(0.000601919 -7.32097e-05 0.000793723)
(0.000667062 -0.000151953 0.000770919)
(0.000599688 -0.000141157 0.000613849)
(0.000730084 -0.000253767 0.000781197)
(0.000654972 -0.000265735 0.000601137)
(0.000681296 -0.000183283 0.000757315)
(0.000480591 1.23369e-05 0.000751283)
(0.000485509 -4.34727e-05 0.000707626)
(0.000597159 -5.83616e-05 0.000861107)
(0.000639201 -6.37625e-05 0.000952722)
(0.00062805 -0.000162384 0.000867175)
(0.000577325 1.42023e-05 0.000864749)
(0.000653341 -0.000119419 0.000971968)
(0.000618593 5.00438e-05 0.000963061)
(0.00057978 -7.12441e-05 0.000853137)
(0.000570598 -0.000108039 0.00078867)
(0.00068094 -0.000144713 0.000933547)
(0.000564805 -0.00012431 0.000770451)
(0.000619763 -0.000181156 0.000740703)
(0.000700571 -0.000162275 0.000882456)
(0.00079871 -0.000253635 0.000941527)
(0.000616085 -0.0002478 0.000689236)
(0.00073522 -0.000355486 0.000621959)
(0.00074315 -0.000201141 0.000830938)
(0.000618818 -0.000182112 0.000417139)
(0.000514866 -0.00017724 0.000444381)
(0.000602507 -0.00019348 0.000451908)
(0.000585064 -9.75328e-05 0.000593796)
(0.000641282 -0.000177323 0.000593575)
(0.000643183 -0.000218781 0.000409494)
(0.000592241 -0.000207364 0.000361784)
(0.00066074 -0.000217669 0.000253474)
(0.000596808 -0.000163816 0.000347526)
(0.000690078 -0.000255326 0.000419409)
(0.000704643 -0.000300244 0.000289805)
(0.000685089 -0.000247569 0.000390395)
(0.000712914 -0.000267524 0.000595063)
(-4.41848e-05 -1.7097e-05 0.000158699)
(0.000686323 -0.000315706 0.000438351)
(0.000690096 -0.000236068 0.000584144)
(0.000813019 -0.000383661 0.000697584)
(0.000796647 -0.000412945 0.000471942)
(0.000743791 -0.000280684 0.000641385)
(-4.74722e-05 -1.24131e-05 0.000160008)
(0.000775129 -0.000368672 0.000475303)
(0.000814907 -0.000381325 0.000344948)
(-3.5975e-05 -3.43357e-05 0.000183088)
(0.000708588 -0.000278262 0.000447333)
(0.000641006 -0.000216881 0.000261523)
(-4.00235e-05 -2.70551e-05 0.000186335)
(0.000651304 -0.000193941 0.000221037)
(0.000634988 -0.000209334 0.000227422)
(-3.42653e-05 -3.4166e-05 0.000168406)
(0.000707132 -0.000205175 0.000173145)
(-3.74148e-05 -1.67254e-05 0.000169758)
(-4.07015e-05 -2.8636e-05 0.000183192)
(0.000729779 -0.000326987 0.000244503)
(0.000679398 -0.000245313 0.000218717)
(-4.18549e-05 -2.72158e-05 0.000182847)
(0.00067454 -0.000251472 0.000273066)
(0.000395934 -0.000234555 0.000221179)
(-4.53871e-05 -1.97998e-05 0.000178141)
(0.000459782 -0.000283677 0.000180372)
(0.000367109 -0.000228099 0.00017737)
(-4.44109e-05 -2.04482e-05 0.000182266)
(0.000265254 -0.000168688 0.000181653)
(0.000333849 -0.000219557 0.000184348)
(-4.82996e-05 -1.30717e-05 0.000190965)
(0.000240814 -0.000162231 0.000150715)
(0.000292309 -0.000165754 0.000228234)
(-3.71449e-05 -1.96281e-05 0.000164305)
(-3.36586e-05 -1.74127e-05 0.000151551)
(0.000337855 -0.000205489 0.000179633)
(-3.92826e-05 -2.37988e-05 0.000154012)
(-4.11366e-05 -1.82269e-05 0.000168285)
(0.000163217 -9.65978e-05 0.000149041)
(-3.95912e-05 -1.58537e-05 0.000152879)
(-4.35078e-05 -1.32378e-05 0.000166669)
(0.000222664 -0.00014331 0.000170838)
(-4.21059e-05 -1.263e-05 0.000151045)
(0.000150597 -9.23931e-05 0.00013088)
(8.12121e-05 -3.55167e-05 9.95603e-05)
(0.000137826 -7.12805e-05 0.000150001)
(9.61586e-05 -3.54795e-05 0.000118894)
(6.43516e-05 -2.24705e-05 8.60733e-05)
(0.000108001 -4.39217e-05 0.000127584)
(7.58703e-05 -4.253e-05 8.17753e-05)
(0.000165521 -8.39626e-05 0.000169295)
(0.000204225 -0.000112642 0.00016906)
(0.00021723 -0.000181454 8.66108e-05)
(0.00035252 -0.000257311 0.000118485)
(0.000249763 -0.000169183 0.000141703)
(9.38697e-05 -6.95596e-05 6.76081e-05)
(0.000208047 -0.0001637 0.000103586)
(0.00015002 -0.000101985 0.000115038)
(0.000106154 -6.86827e-05 0.000101333)
(0.00014907 -9.27493e-05 0.000132715)
(0.000199075 -0.000128674 0.000130243)
(4.13477e-05 -4.80686e-05 1.93974e-05)
(0.000106016 -6.93033e-05 9.00359e-05)
(7.67982e-05 -7.49918e-05 5.05647e-05)
(4.16853e-05 4.73063e-05 9.02454e-05)
(4.5745e-05 2.61101e-05 9.28542e-05)
(4.56963e-05 4.71022e-05 9.84925e-05)
(5.94372e-05 5.56009e-05 0.000109241)
(7.37176e-05 3.6968e-05 0.000114097)
(3.52051e-05 4.88385e-05 7.12189e-05)
(-2.55098e-05 -3.87267e-05 0.000144866)
(2.10229e-05 7.02091e-05 6.97172e-05)
(2.04503e-05 4.15938e-05 3.57865e-05)
(4.74682e-05 3.82867e-05 7.39832e-05)
(2.51861e-05 3.64457e-05 3.65252e-05)
(6.12741e-05 -1.13902e-06 9.89094e-05)
(-2.83243e-05 -3.54347e-05 0.000147217)
(2.99019e-05 1.57998e-05 6.45839e-05)
(5.64166e-05 1.64372e-06 9.58062e-05)
(4.38293e-05 2.42585e-06 6.97118e-05)