/*--------------------------------*- C++ -*----------------------------------*\
  =========                 |
  \\      /  F ield         | OpenFOAM: The Open Source CFD Toolbox
   \\    /   O peration     | Website:  https://openfoam.org
    \\  /    A nd           | Version:  7
     \\/     M anipulation  |
\*---------------------------------------------------------------------------*/
FoamFile
{
    version     2.0;
    format      ascii;
    class       volScalarField;
    location    "4.25";
    object      p;
}
// * * * * * * * * * * * * * * * * * * * * * * * * * * * * * * * * * * * * * //

dimensions      [0 2 -2 0 0 0 0];

internalField   nonuniform List<scalar> 
382612
(
0.00214465
0.00197609
0.00205092
0.00205768
0.00184758
0.00230657
0.00217694
0.00202987
0.00185209
0.00177647
0.00190204
0.00188867
0.0018982
0.00194452
0.00198601
0.00214273
0.00196866
0.00211051
0.00207922
0.00210592
0.0021322
0.00216701
0.00220195
0.00225837
0.00223393
0.00220461
0.00217869
0.00269593
0.00275026
0.00279536
0.0028327
0.00261622
0.00260622
0.00259376
0.00257338
0.00246595
0.00208645
0.00212588
0.00220611
0.00224758
0.00228415
0.00231728
0.0022655
0.00224414
0.00221669
0.00218431
0.0020972
0.00211526
0.0021413
0.00216323
0.00230011
0.00227426
0.00224499
0.00221425
0.00216511
0.00205069
0.00207188
0.00211103
0.00218936
0.00211289
0.00220182
0.00215453
0.00218454
0.00270693
0.00219923
0.00199644
0.00234269
0.00253232
0.00263774
0.00280835
0.00283203
0.00283674
0.00283965
0.00307171
0.00305954
0.00304312
0.00301251
0.00288497
0.00262651
0.00276066
0.00281259
0.00284653
0.0028703
0.0032418
0.00324784
0.00325298
0.00322348
0.00300654
0.00229874
0.00247096
0.00251463
0.00253644
0.00255099
0.00272886
0.00274268
0.00275849
0.00274518
0.00259853
0.00212004
0.00215249
0.00220305
0.00222709
0.00225276
0.00228169
0.00216444
0.00215259
0.00213947
0.00213284
0.00195142
0.00198592
0.0020146
0.00203654
0.0022782
0.00224687
0.00221371
0.0021818
0.00212641
0.00182671
0.00189527
0.00193326
0.00195689
0.00197316
0.00214304
0.00210952
0.00207557
0.00204165
0.00195386
0.00171405
0.00187672
0.00207047
0.00210575
0.00212159
0.00212917
0.00234929
0.00235592
0.00236528
0.00236961
0.00244919
0.00241611
0.00232389
0.00229886
0.00228028
0.00226681
0.00191883
0.00190493
0.0018881
0.00187119
0.00203281
0.00205941
0.00208006
0.00209555
0.00210631
0.00209153
0.00207479
0.00206162
0.00209452
0.00200635
0.00194682
0.00194902
0.00196023
0.00196973
0.00189133
0.00204047
0.00206119
0.00175361
0.00184193
0.00183967
0.00215271
0.0023777
0.00174038
0.00177464
0.00208558
0.00175122
0.00181078
0.00178674
0.00174962
0.0017529
0.00176362
0.00176944
0.00236008
0.00237239
0.0023914
0.00240776
0.00235988
0.00185374
0.00183343
0.00182927
0.00183358
0.00183867
0.00226413
0.00228263
0.00231113
0.00234072
0.00234867
0.00200344
0.00217035
0.00219388
0.00219558
0.00219216
0.00219077
0.00193445
0.00193565
0.00193944
0.00195191
0.00155244
0.00156226
0.00157399
0.00157924
0.00202377
0.00201939
0.0020134
0.00200987
0.00204286
0.00156111
0.00155136
0.0020263
0.00192832
0.00153941
0.0017762
0.00198217
0.00165728
0.00196457
0.00194147
0.00167163
0.00148396
0.00184242
0.00191585
0.00177973
0.00157028
0.00180025
0.0019403
0.00199297
0.00204617
0.00199029
0.00186105
0.00175916
0.00205029
0.00194271
0.00201251
0.00209051
0.00203479
0.00203441
0.00215975
0.00218589
0.00198138
0.00197189
0.00202052
0.00203443
0.00205332
0.00207399
0.00228773
0.0022822
0.00226956
0.00222341
0.0025403
0.00251707
0.00249825
0.00248042
0.00299547
0.00298283
0.00297018
0.00293876
0.00277265
0.00262739
0.00254465
0.00257261
0.00259193
0.00259861
0.00260685
0.00223538
0.00223593
0.00222817
0.00221101
0.00222375
0.00276445
0.00273631
0.00274496
0.00275759
0.00276792
0.00261321
0.00259716
0.00257188
0.0025513
0.00256855
0.00286638
0.00283076
0.00283239
0.00284847
0.00286177
0.0031182
0.00311733
0.00311488
0.0031004
0.00300786
0.00290778
0.0030598
0.00309797
0.00311529
0.00312552
0.00360805
0.00361301
0.00361865
0.00358935
0.0033512
0.00249483
0.00254943
0.00257033
0.00259637
0.00261818
0.00267487
0.00266391
0.00264897
0.00261868
0.00247838
0.00222559
0.00233402
0.0023772
0.0024086
0.0024299
0.00281105
0.00282723
0.00285185
0.00285317
0.00270664
0.00184812
0.00187954
0.00189353
0.00191748
0.00193966
0.0021342
0.00216991
0.00218965
0.00220665
0.00221812
0.0020337
0.00201265
0.0019858
0.00196566
0.00192369
0.00251756
0.00257745
0.00256413
0.00253539
0.0025137
0.0017911
0.00177699
0.0017594
0.00175208
0.00176057
0.00236726
0.00234065
0.00230995
0.00227981
0.00225959
0.00165605
0.00165224
0.00164773
0.00165965
0.00174296
0.00183669
0.00178311
0.00177916
0.00178958
0.00179925
0.00212706
0.0021457
0.00217232
0.00220453
0.00226172
0.00178505
0.00169125
0.00167985
0.00168624
0.00169156
0.00213508
0.00214898
0.00216929
0.00219096
0.00219625
0.0019549
0.00204956
0.00205722
0.00205943
0.00205647
0.00205356
0.00190371
0.00190398
0.00190497
0.00191187
0.00169617
0.00169549
0.00169836
0.00169928
0.00197173
0.00197366
0.00197459
0.00197529
0.00198461
0.00171101
0.00193675
0.00187879
0.00186809
0.00186767
0.00186709
0.00177756
0.00191296
0.00209177
0.00202986
0.00200754
0.00199517
0.00198678
0.00188627
0.00188868
0.00189062
0.00188936
0.00202229
0.00201875
0.00201345
0.00200918
0.00202691
0.00202948
0.0020328
0.00203489
0.00193193
0.0019354
0.00193746
0.00193746
0.00207035
0.00207728
0.00208576
0.00209571
0.00213141
0.0019385
0.00204019
0.00208043
0.00205556
0.00178039
0.00197284
0.00196275
0.00174419
0.00167047
0.00194016
0.00194373
0.00166591
0.0021118
0.00212377
0.0020699
0.00202886
0.00188617
0.00202597
0.00188649
0.00193687
0.00191892
0.00203533
0.00209374
0.00204171
0.00202949
0.00202737
0.00202727
0.00204121
0.00203834
0.00203435
0.00203472
0.00205773
0.00220359
0.00219155
0.00218179
0.00217816
0.00217826
0.00215346
0.00215647
0.00216205
0.00217345
0.00220734
0.00205824
0.00205392
0.0020511
0.00204931
0.00204565
0.00204296
0.00204546
0.00204331
0.00204037
0.00203953
0.0019339
0.00193692
0.00193875
0.00193912
0.00199865
0.00200132
0.0020045
0.0020071
0.00201604
0.00192727
0.00208937
0.00205754
0.00205203
0.00204857
0.00204533
0.00203502
0.00207884
0.00204553
0.00202334
0.00202557
0.00203093
0.00203423
0.00217107
0.00217071
0.00216894
0.00216552
0.00216752
0.00225439
0.00226104
0.00225833
0.00225639
0.00225612
0.00217448
0.00217332
0.0021726
0.00217743
0.00220781
0.00219555
0.00218189
0.00217943
0.00217712
0.00217535
0.00204607
0.00204331
0.00203968
0.00203824
0.00205522
0.00205265
0.00204794
0.00204419
0.00205756
0.00206025
0.00206332
0.00206513
0.00206631
0.00206537
0.00206582
0.00206542
0.00222136
0.00221588
0.00220814
0.00220161
0.0022137
0.00208312
0.00206909
0.00208511
0.00214445
0.00204698
0.00205224
0.00205577
0.00200501
0.00183862
0.00198506
0.00203849
0.0019518
0.00216533
0.00211039
0.00208169
0.00213075
0.00204823
0.00205618
0.00216557
0.00213799
0.00221837
0.00218188
0.00214455
0.00212279
0.00212262
0.00212731
0.00213069
0.00224757
0.0022443
0.00223874
0.00223161
0.00222883
0.00229489
0.00230063
0.00230151
0.00230218
0.00230258
0.00224684
0.00224706
0.00224637
0.00224539
0.00225617
0.00233492
0.00233357
0.00233626
0.00233708
0.00233728
0.00231216
0.00230453
0.00229378
0.00228181
0.0022765
0.00216545
0.00216097
0.00215882
0.00215533
0.00215173
0.00225901
0.002251
0.00224088
0.00222819
0.0022069
0.00212178
0.00208448
0.00208682
0.00208977
0.00208929
0.00208813
0.00209511
0.00209246
0.0020892
0.00209207
0.00211376
0.00211515
0.00211676
0.0021179
0.00207168
0.00207306
0.0020747
0.00207544
0.00207637
0.00211701
0.00212483
0.00208347
0.00210245
0.00213646
0.00204474
0.002047
0.0021062
0.0021473
0.00222129
0.00213596
0.00211979
0.00224066
0.0021596
0.00208172
0.0021743
0.00230858
0.00214612
0.00208009
0.00225035
0.00229472
0.00230322
0.0023012
0.00228162
0.00222883
0.00214946
0.00215471
0.00216083
0.002164
0.00216568
0.00227221
0.00227211
0.00227316
0.00227611
0.00227498
0.00234402
0.00235539
0.00235747
0.00235852
0.00235939
0.00232251
0.0023182
0.00231154
0.0023028
0.00229976
0.00236552
0.00238669
0.00239412
0.00239676
0.00239806
0.00245168
0.00244873
0.0024461
0.00244265
0.00242315
0.00238545
0.00239245
0.00240165
0.00241091
0.00241744
0.00247211
0.00247034
0.00246725
0.00245789
0.00242988
0.0023576
0.00237157
0.00237998
0.00238601
0.00238984
0.00223648
0.00223189
0.00222563
0.00221654
0.00219639
0.0021215
0.00209906
0.00211105
0.00211572
0.00211603
0.00211456
0.00214107
0.00213707
0.00213157
0.00212627
0.00216482
0.00217042
0.00217723
0.00218488
0.00212783
0.0021247
0.0021188
0.00210835
0.00209065
0.00215245
0.00224435
0.00226549
0.00227561
0.00228482
0.00229248
0.00228162
0.00227325
0.00226411
0.0022544
0.00222441
0.00212424
0.00208646
0.00211882
0.00212777
0.00213389
0.00214095
0.00218946
0.00217772
0.00216446
0.00215349
0.00217463
0.00218404
0.00219267
0.00219944
0.00216431
0.00215503
0.00214676
0.0021354
0.00209315
0.00214748
0.00218063
0.00210839
0.00207513
0.00213007
0.00220359
0.00211731
0.00211594
0.00220174
0.00223552
0.00212602
0.00217171
0.00227902
0.00224131
0.00210387
0.00209629
0.0021383
0.00256366
0.00225831
0.00223885
0.00248694
0.00229674
0.00215994
0.00206485
0.00207126
0.00184019
0.00193557
0.00197724
0.00193454
0.00190306
0.00198945
0.00203162
0.00197288
0.00197915
0.00204538
0.00200649
0.00184482
0.00210952
0.00206399
0.00212961
0.00211
0.00217954
0.00213608
0.00212381
0.00212074
0.00212012
0.0021089
0.00211007
0.0021142
0.00212472
0.00213523
0.00221302
0.00220939
0.00220248
0.00219928
0.00219821
0.00207945
0.00207872
0.00207655
0.00207125
0.00206479
0.00207051
0.00204511
0.00203553
0.00203298
0.00203288
0.00212316
0.00212275
0.00212369
0.00212722
0.00213123
0.00219472
0.00219488
0.00219598
0.00219842
0.00220015
0.00226139
0.00225993
0.00225538
0.00224627
0.00223617
0.00232172
0.0023471
0.00236153
0.0023666
0.00236831
0.00244872
0.00244505
0.00244056
0.0024339
0.00241522
0.00245611
0.00248114
0.0024896
0.00249433
0.00249725
0.00254927
0.0025444
0.00253793
0.00252759
0.00249952
0.00248264
0.00251295
0.00252452
0.00253146
0.00253602
0.00244422
0.0024358
0.00242485
0.00241453
0.00240102
0.00240376
0.00244097
0.0024544
0.00246037
0.00246419
0.00234428
0.00234353
0.00234025
0.00232922
0.00228519
0.0022918
0.00233201
0.002343
0.00234444
0.00234336
0.00216095
0.00215163
0.0021414
0.00213621
0.00213432
0.0021479
0.00215798
0.00216706
0.0021249
0.00211861
0.00211131
0.00210129
0.00208006
0.002126
0.00213107
0.00213707
0.00214479
0.00215099
0.00221073
0.00221094
0.00221007
0.00220797
0.00220302
0.00217695
0.00219402
0.00219989
0.0022038
0.00220679
0.00211588
0.00210861
0.00210045
0.00209616
0.00206564
0.00207268
0.00207939
0.00208596
0.00210161
0.00209623
0.00209174
0.00208733
0.00209792
0.00209764
0.00210246
0.0021076
0.00219881
0.00220165
0.0022043
0.00220376
0.00219587
0.00210615
0.00207785
0.00206459
0.00208469
0.00203821
0.00202719
0.00211374
0.00216357
0.0021732
0.00209995
0.00213166
0.00225995
0.00201568
0.00204483
0.00207902
0.00203136
0.00207904
0.00205326
0.00214485
0.00224011
0.00219809
0.00210531
0.00208691
0.00216211
0.00201938
0.00201703
0.00199505
0.00190215
0.00216454
0.00213427
0.00214141
0.0023119
0.00240168
0.00259792
0.00273003
0.00275848
0.00267877
0.00252
0.00231107
0.00209374
0.00187166
0.00166558
0.00155596
0.00156635
0.00157239
0.00157055
0.00156692
0.0017377
0.00173524
0.00173399
0.00173848
0.00174971
0.00187952
0.00190833
0.00191988
0.00191992
0.00191736
0.00203655
0.00203325
0.00203004
0.00203037
0.00202957
0.00206601
0.00209249
0.00209322
0.00209309
0.00209397
0.00217504
0.00217477
0.00217102
0.00215637
0.00210801
0.0022562
0.00226722
0.00227194
0.00227705
0.00228142
0.00233894
0.00233551
0.00233184
0.00232515
0.00228822
0.00230646
0.00235518
0.00237139
0.00237796
0.00238088
0.00244323
0.00243594
0.00242673
0.00241715
0.00240104
0.00243578
0.00246984
0.00248575
0.00249432
0.00249901
0.00254916
0.0025444
0.00253762
0.0025259
0.00249307
0.0024858
0.00252594
0.00253822
0.00254392
0.00254751
0.00242499
0.00241885
0.002411
0.00240269
0.00238337
0.00238617
0.00240943
0.0024161
0.00241908
0.0024209
0.00230714
0.00229827
0.00228804
0.0022823
0.00228816
0.00230316
0.00231333
0.00231951
0.00232429
0.00232759
0.00228111
0.00228249
0.0022839
0.00228395
0.00227598
0.00225491
0.00224966
0.00225211
0.00225502
0.00225703
0.00215918
0.00215788
0.00215573
0.00215509
0.00216822
0.00211352
0.002108
0.00210966
0.00211182
0.00211281
0.00211963
0.0021168
0.00211367
0.00211254
0.00212222
0.00204658
0.00202749
0.00202822
0.00203443
0.00204045
0.00204565
0.00206116
0.00205519
0.00204726
0.00204101
0.00207389
0.0020753
0.00207894
0.00208204
0.0020698
0.00206704
0.00206439
0.00206
0.00205265
0.00208134
0.00210354
0.0020832
0.00208417
0.00208714
0.00202896
0.00204756
0.00205343
0.00204037
0.0021652
0.0020964
0.00195617
0.00183246
0.00190079
0.00199014
0.00194587
0.00184471
0.00188863
0.00193451
0.00197344
0.00197108
0.00203988
0.00202833
0.00203572
0.00202565
0.00188323
0.00197198
0.00195247
0.00183566
0.00174571
0.00197659
0.0021769
0.00240565
0.00257195
0.00263286
0.00256953
0.00240279
0.00214884
0.00185969
0.00156918
0.00131806
0.00122508
0.00125157
0.0012552
0.00124984
0.0012437
0.00136328
0.00135983
0.00135722
0.00135946
0.00136757
0.00162316
0.00165943
0.00166854
0.00166419
0.00165739
0.00180035
0.00179613
0.00179207
0.0017908
0.00178842
0.00197501
0.0019819
0.001986
0.0019905
0.00199405
0.00206327
0.00205684
0.00204878
0.00204103
0.00202376
0.00219062
0.00220476
0.00221337
0.0022215
0.00222758
0.00220251
0.00219566
0.00218748
0.00217997
0.00216437
0.00227703
0.0022792
0.00228308
0.00228954
0.0022949
0.00238336
0.00238009
0.00237416
0.00236333
0.00234143
0.00241413
0.00243003
0.00243776
0.00244486
0.00245081
0.00244693
0.00244372
0.00243947
0.00243389
0.00241975
0.00236563
0.00237713
0.00237856
0.00238046
0.00238232
0.00234235
0.00234035
0.00233866
0.00234063
0.00234652
0.00228134
0.00228175
0.00228583
0.00229234
0.00229768
0.00244145
0.00244016
0.00243781
0.00242921
0.0023956
0.00242348
0.00240183
0.00243713
0.00243335
0.00237214
0.00240712
0.00241771
0.0024206
0.0024211
0.00229628
0.0022932
0.00228898
0.00228622
0.00229035
0.00229191
0.00229828
0.00230268
0.00230366
0.00230373
0.00227063
0.00227044
0.00226943
0.00226608
0.00226687
0.00222241
0.00222738
0.00222878
0.00222902
0.00222899
0.00210961
0.0021078
0.002106
0.00210907
0.00213416
0.00222482
0.00221641
0.0022068
0.00220059
0.00219733
0.00212983
0.00213228
0.00213728
0.00214953
0.00218968
0.00207399
0.0020603
0.00205337
0.00205163
0.0020507
0.00205124
0.00203851
0.00203888
0.00204016
0.00204794
0.00199891
0.00200534
0.00200977
0.00201263
0.00207365
0.00207304
0.00207205
0.00206657
0.00205253
0.00199331
0.00206205
0.00211261
0.00203305
0.00200069
0.00202928
0.00214964
0.0020685
0.00205022
0.00206647
0.00207258
0.00207287
0.0020718
0.00197134
0.00197095
0.0019697
0.00197045
0.00198997
0.00200027
0.00202244
0.00202283
0.0020187
0.00201457
0.00202914
0.00203523
0.00204146
0.00204065
0.00201283
0.00198048
0.00199733
0.0020069
0.00200913
0.00200996
0.00201185
0.00200219
0.00200578
0.00200814
0.0020043
0.00197954
0.00198257
0.00198846
0.0019926
0.00204096
0.00203836
0.00203511
0.00202945
0.00202403
0.00200204
0.00209958
0.00206217
0.00203386
0.00199842
0.00186944
0.00197873
0.00194938
0.00179388
0.00177115
0.00191238
0.00185236
0.00167753
0.00183975
0.00190706
0.00198265
0.00203533
0.00187429
0.0018953
0.00193462
0.0019157
0.00191747
0.00196047
0.00201254
0.00198294
0.00205741
0.00204499
0.00201247
0.0019929
0.00181883
0.00196178
0.00199366
0.00190004
0.00210783
0.00208674
0.00201877
0.0020334
0.00196286
0.00198914
0.00195875
0.00196276
0.00157988
0.00181736
0.00181196
0.0014936
0.00147345
0.00179335
0.00188182
0.00181263
0.00168324
0.00186064
0.00179861
0.00157468
0.00167209
0.0018506
0.00190701
0.00166627
0.00157908
0.00185741
0.00184614
0.00152015
0.00152808
0.00184234
0.00190342
0.00164306
0.00155226
0.00187684
0.00189315
0.00155538
0.00169199
0.00170104
0.00164464
0.00163819
0.00156302
0.00155426
0.00155664
0.00155689
0.00173066
0.00172955
0.00172852
0.0017378
0.00180159
0.00212769
0.00204668
0.00202066
0.00200596
0.00199729
0.00174136
0.00173786
0.00173415
0.00174571
0.00183514
0.00210598
0.00207284
0.0020508
0.00203786
0.0020308
0.0019325
0.00192399
0.00191519
0.00191998
0.00199124
0.00186161
0.00179574
0.00165639
0.00165219
0.00159587
0.00158744
0.00158839
0.00158796
0.00178883
0.00179052
0.00179115
0.00179319
0.00182647
0.00207106
0.00202104
0.00200104
0.00199327
0.00199005
0.00185915
0.00185597
0.0018523
0.00185854
0.00191578
0.00211828
0.00210469
0.00209027
0.00208216
0.00207779
0.00194257
0.00193986
0.0019376
0.00194698
0.00201699
0.00195517
0.00191903
0.00182974
0.00181444
0.00177242
0.00172173
0.00171476
0.00171664
0.00171878
0.00193488
0.00193809
0.00194544
0.00196127
0.00197716
0.00203319
0.00201226
0.00199831
0.00199303
0.0019915
0.00195294
0.00195094
0.00194815
0.00194896
0.00197258
0.00201061
0.00198343
0.00198162
0.00198281
0.00198345
0.00201845
0.00214098
0.00209005
0.00200282
0.00184195
0.00176776
0.0017548
0.00175624
0.00175743
0.00175722
0.00196202
0.00196156
0.00196612
0.00198082
0.00199854
0.0019976
0.00198798
0.00198211
0.00198265
0.00198528
0.00185032
0.00185262
0.00185249
0.00184452
0.0018307
0.00174369
0.00171533
0.00170428
0.00170295
0.00170401
0.00151929
0.00152201
0.00152353
0.00151908
0.00151399
0.00137089
0.00135343
0.00134142
0.00133737
0.00133637
0.0013361
0.0013359
0.00133735
0.00134568
0.00136885
0.00113214
0.00111717
0.00111078
0.00111071
0.00111252
0.00111098
0.00111358
0.00111912
0.00112778
0.00113736
0.000990356
0.000955238
0.000951598
0.000952123
0.000952932
0.000969847
0.000964727
0.000960973
0.000962872
0.000989988
0.00130119
0.00133047
0.00133527
0.00132887
0.00132088
0.00140741
0.00140178
0.00139564
0.00139418
0.00140479
0.00162035
0.00162531
0.00163204
0.00163941
0.00164541
0.00192363
0.00192821
0.0019311
0.0019195
0.0018561
0.00198809
0.00202636
0.00203442
0.00203727
0.00204015
0.00203074
0.00203319
0.00203325
0.00202184
0.00198307
0.00209369
0.00210091
0.00210642
0.00210973
0.00211278
0.00223904
0.00223917
0.00223794
0.00222866
0.00219937
0.00214205
0.00213981
0.00214334
0.00214526
0.00214519
0.00229816
0.00229442
0.00229267
0.00229464
0.00229837
0.00217326
0.00217035
0.00217344
0.00217493
0.00217494
0.00220561
0.00220642
0.00220751
0.00220609
0.00219776
0.00213675
0.00211608
0.00211343
0.00211429
0.00211523
0.0022282
0.00222948
0.00223397
0.00224535
0.00225734
0.0022534
0.00222172
0.00221158
0.00220919
0.002209
0.00206375
0.00206227
0.00205994
0.00205861
0.00207427
0.00204067
0.00202511
0.00202513
0.00202618
0.00202645
0.00216064
0.00216788
0.00218151
0.00220441
0.00222739
0.00223859
0.0022288
0.00220898
0.00219528
0.00218744
0.00216951
0.00217243
0.00217951
0.00219475
0.00221576
0.00224174
0.00221599
0.00221221
0.00221095
0.00221183
0.00205718
0.0020553
0.00205307
0.00205389
0.00206844
0.00194328
0.00194078
0.00196689
0.00197694
0.00198588
0.00199261
0.00203581
0.00203653
0.00203591
0.0020207
0.00210095
0.00209893
0.00209675
0.00209577
0.00206132
0.00205806
0.00205621
0.00205824
0.00207689
0.00209431
0.00203104
0.00205372
0.00199768
0.00194309
0.00216157
0.00207429
0.00200788
0.00196254
0.00184059
0.00193822
0.00191643
0.00183105
0.00186582
0.00187519
0.00195248
0.00195919
0.00192625
0.0019657
0.00197988
0.00192388
0.00185608
0.00194492
0.00195644
0.00188036
0.00187908
0.00193004
0.00189519
0.0018571
0.00190472
0.00167356
0.00154167
0.00144334
0.00140596
0.00142502
0.00147269
0.00151306
0.00151787
0.00145969
0.00133052
0.00115305
0.000978108
0.000826341
0.000687291
0.000730895
0.000718058
0.000718301
0.000721425
0.000723883
0.000947562
0.000958959
0.000971331
0.000975137
0.000954446
0.000992403
0.000986095
0.000981955
0.000978739
0.000976596
0.00106934
0.00107992
0.00109054
0.00109022
0.00106421
0.00119242
0.00116182
0.00116079
0.00116928
0.00117785
0.00146664
0.00147605
0.00148464
0.00147727
0.00143042
0.00159263
0.00158869
0.00159091
0.00159793
0.00160347
0.00184541
0.00183951
0.00183349
0.00183016
0.00183034
0.00175504
0.0017774
0.0017826
0.00178229
0.00178053
0.00172707
0.00173243
0.00173565
0.00173223
0.00173036
0.00199474
0.00197733
0.00197227
0.00197727
0.00198342
0.00208313
0.00208093
0.00208125
0.00209048
0.00211858
0.00196221
0.00196864
0.00197018
0.00196843
0.00196651
0.00191747
0.00191928
0.00192123
0.00192401
0.00194154
0.00213878
0.00212938
0.00211607
0.00211225
0.00211285
0.00213118
0.00213109
0.0021342
0.0021477
0.00218478
0.00197513
0.00196684
0.00196653
0.00196691
0.00196618
0.00201148
0.00201254
0.0020138
0.00201481
0.00201595
0.0020068
0.00197399
0.00196716
0.00196562
0.00196497
0.00215988
0.00216686
0.0021796
0.00219813
0.00220534
0.00194602
0.00194183
0.00194459
0.00194555
0.00194556
0.00194096
0.00193948
0.00193492
0.00192538
0.00192176
0.00189257
0.00189649
0.00190876
0.00191761
0.00192237
0.00197484
0.00196969
0.00196087
0.001945
0.00192209
0.00179882
0.00182931
0.00184803
0.00185783
0.00186269
0.00205685
0.00205241
0.00204517
0.00202698
0.00196966
0.00214961
0.00215961
0.00215335
0.00214801
0.00214561
0.00204256
0.00204939
0.00205605
0.00205292
0.00198897
0.00199274
0.00199948
0.00200524
0.00203904
0.00203037
0.00202014
0.00201164
0.0020129
0.00202185
0.00202006
0.00201654
0.00223569
0.00223518
0.00223598
0.00222916
0.00216178
0.00195055
0.00201601
0.00203839
0.00191178
0.00186456
0.00202884
0.0020179
0.00186646
0.00188883
0.00205195
0.0020754
0.00208248
0.00208363
0.00208558
0.0019512
0.00194439
0.00193226
0.00191764
0.00212243
0.00213508
0.00213058
0.00212759
0.00199491
0.00199215
0.00198693
0.00197516
0.00196166
0.00218799
0.00214697
0.00213847
0.00212924
0.00212402
0.00213887
0.00213738
0.00213646
0.00213604
0.00223106
0.00195475
0.00201105
0.00200274
0.00200389
0.00200745
0.00200986
0.00205062
0.00205562
0.00206044
0.00205138
0.00198483
0.00200475
0.00200965
0.00201306
0.00199432
0.00199089
0.00198656
0.00198026
0.00195444
0.00184688
0.00182016
0.00201151
0.00199875
0.00198056
0.00195322
0.00194263
0.00194081
0.00190251
0.00206788
0.00200096
0.00193588
0.0019719
0.00199913
0.00193007
0.00196451
0.00192826
0.00187093
0.0016846
0.0014514
0.00121789
0.00104985
0.000961196
0.000961383
0.00100952
0.00104594
0.00102657
0.000947069
0.000829826
0.000735141
0.000617783
0.000546366
0.000464546
0.000511857
0.000503332
0.000495467
0.000485609
0.000477403
0.000528865
0.000528076
0.00052985
0.000539246
0.000576892
0.0006816
0.000684203
0.000677741
0.000665648
0.000654028
0.000757609
0.000756648
0.000757398
0.00076721
0.000796394
0.00103165
0.00099406
0.000979186
0.000974481
0.000972998
0.0011439
0.00115293
0.00116047
0.00115944
0.0011521
0.0014276
0.00138921
0.0013801
0.00138416
0.00139075
0.00161593
0.0016153
0.00161721
0.00162916
0.00166569
0.00151298
0.00151207
0.00151009
0.00150651
0.00150414
0.00148434
0.00148995
0.00149476
0.00149867
0.00152243
0.00182747
0.00180055
0.00178312
0.00177909
0.00178086
0.00188028
0.00188105
0.00188574
0.00190389
0.00195531
0.00170765
0.00170862
0.00170767
0.00170524
0.00170302
0.00171252
0.00171531
0.00171863
0.00172467
0.00174995
0.00198365
0.00197002
0.00195103
0.00194097
0.00193757
0.00197555
0.0019796
0.00199012
0.00201268
0.00203828
0.00212426
0.00208064
0.00206013
0.00205114
0.00204764
0.00178221
0.00178199
0.00177791
0.00176883
0.00177026
0.00181607
0.00181491
0.00182268
0.00182745
0.00182898
0.00189577
0.00189407
0.00189183
0.00189021
0.00189039
0.00194486
0.00195634
0.00195856
0.0019588
0.0019589
0.00203691
0.00203691
0.00203664
0.0020333
0.00201399
0.00197414
0.00198774
0.00199066
0.0019913
0.00199105
0.0019765
0.00196945
0.00195733
0.00193708
0.00190544
0.00192953
0.00192779
0.00193544
0.00194234
0.00194658
0.00210396
0.00211068
0.00212098
0.00212845
0.00210119
0.00198952
0.00205124
0.00205392
0.00204861
0.00204398
0.00199304
0.00199213
0.00198959
0.00198395
0.00195352
0.0020737
0.00206536
0.00205948
0.00205553
0.00205501
0.00199912
0.00184189
0.00198988
0.0019328
0.00190037
0.00216443
0.00176831
0.00190229
0.00226717
0.00180779
0.00202154
0.00275911
0.00189567
0.00214515
0.0020924
0.00246705
0.0019535
0.00170112
0.00131722
0.000992053
0.000745627
0.000662258
0.000688568
0.000755155
0.000787124
0.000737994
0.000631992
0.000522193
0.0004305
0.000387173
0.000339887
0.000414922
0.000416533
0.000411644
0.000406358
0.000402628
0.000348676
0.000355945
0.000362309
0.000366376
0.000376935
0.000579073
0.000557743
0.000539305
0.000528701
0.000523358
0.00073126
0.000739238
0.0007511
0.000767929
0.000802091
0.000803996
0.000775728
0.000769495
0.000762659
0.00075555
0.0010845
0.00109035
0.00110426
0.00113346
0.00117831
0.00138723
0.00133109
0.00131021
0.00129967
0.0012938
0.00130458
0.00130955
0.00131502
0.00132241
0.00135637
0.00168537
0.00164923
0.00162365
0.00161254
0.00160896
0.00172359
0.00172729
0.00173545
0.00175351
0.0017952
0.00146625
0.00144519
0.00144511
0.00144718
0.00144821
0.00157364
0.00157424
0.0015754
0.00157781
0.00159141
0.00167046
0.00166869
0.00166571
0.00166228
0.00165972
0.0017477
0.00175505
0.00176377
0.00176505
0.00173838
0.00177322
0.00179734
0.00179308
0.00178225
0.00177237
0.00195135
0.00195948
0.0019716
0.00197732
0.0019407
0.00192197
0.00193372
0.00193455
0.0019351
0.00193529
0.00191796
0.0019166
0.00191297
0.00190645
0.00188323
0.00199104
0.00202068
0.00202934
0.00203427
0.00203764
0.00208138
0.00208256
0.00208402
0.00208096
0.00204756
0.00203188
0.00203395
0.00203663
0.00204117
0.00204469
0.00218412
0.00219256
0.002205
0.00220798
0.00214778
0.00194628
0.00189594
0.00190065
0.00191681
0.00192862
0.00213019
0.0021271
0.00212245
0.00211793
0.00210802
0.00204253
0.00201522
0.00201208
0.00201385
0.00201478
0.00208084
0.00208849
0.00209873
0.0021016
0.00206507
0.00191205
0.00199409
0.00199523
0.00198477
0.00197568
0.00207012
0.0020788
0.00209336
0.00209678
0.00200099
0.00183417
0.00184722
0.00185521
0.00185935
0.00186102
0.00202778
0.0020337
0.00203881
0.00203419
0.00200274
0.00200103
0.00190464
0.00186507
0.00201146
0.00201827
0.00186038
0.00190375
0.00190933
0.00190878
0.00190686
0.00200466
0.00200873
0.0020129
0.00201564
0.00199489
0.00190612
0.00189329
0.00194547
0.00193132
0.00186399
0.00190292
0.001954
0.00195182
0.00183878
0.00186699
0.00196953
0.00197041
0.00194632
0.00219048
0.0020705
0.00202811
0.00207336
0.00203417
0.00200755
0.0019515
0.00185841
0.0018813
0.00196759
0.00199025
0.0019601
0.0020094
0.00201502
0.0020096
0.00199878
0.00202346
0.00200689
0.00205793
0.00214347
0.00209399
0.00202684
0.00200233
0.0020133
0.00194905
0.00199402
0.00201621
0.00201937
0.00201519
0.00200902
0.00201096
0.00198282
0.00195353
0.00198192
0.00195482
0.00192111
0.00180605
0.00191361
0.00191801
0.00179719
0.00185505
0.0019557
0.00190259
0.00185105
0.00186738
0.00190214
0.00194066
0.00194174
0.00194618
0.00193566
0.00191691
0.00195426
0.00200224
0.00193008
0.00194559
0.00198594
0.00198682
0.00196123
0.00194744
0.00199921
0.00218087
0.001986
0.00197206
0.00208641
0.00196041
0.00195778
0.00180539
0.00156944
0.00123548
0.000893498
0.00074375
0.000775766
0.00111
0.00128469
0.00161902
0.00179973
0.00183134
0.00184659
0.00185754
0.00215754
0.00217323
0.00218995
0.00219387
0.00213604
0.00153045
0.00161724
0.0016304
0.00163006
0.00162529
0.00226758
0.00228988
0.00231726
0.00232598
0.00227128
0.00161856
0.00160262
0.00160248
0.00160524
0.00160492
0.00231731
0.00234093
0.00237451
0.00240318
0.00235548
0.00233069
0.00245976
0.00247337
0.00246251
0.00245056
0.00174354
0.00174594
0.00174333
0.00173084
0.00167473
0.00148429
0.00156637
0.00156904
0.0015671
0.0015652
0.00200711
0.00201791
0.00203108
0.0020447
0.00208962
0.00155006
0.00152055
0.00152023
0.00152249
0.00152061
0.00155298
0.00155451
0.00155696
0.00156425
0.00158403
0.00205918
0.00197335
0.0019449
0.0019298
0.0019198
0.0018286
0.00184072
0.00186136
0.00189308
0.00191699
0.00194871
0.00186124
0.00183755
0.00182804
0.00182284
0.00179001
0.00179699
0.00181129
0.0018376
0.00188346
0.00178886
0.00172398
0.00171482
0.00171818
0.00172208
0.00152127
0.00147772
0.001473
0.00147359
0.00147247
0.0015441
0.00154343
0.00154092
0.00154243
0.00157323
0.001888
0.00185774
0.00183586
0.00182406
0.00181907
0.00175452
0.00175353
0.00175604
0.0017775
0.0018779
0.00180621
0.00180209
0.00180501
0.00180643
0.00180641
0.00184165
0.00184042
0.00183796
0.00183539
0.00184295
0.00189562
0.00180824
0.00170049
0.00151012
0.0014318
0.00141958
0.00142268
0.00142396
0.00142299
0.00170472
0.00170776
0.00171489
0.00173414
0.00176463
0.00176705
0.00173807
0.00172171
0.00171625
0.00171464
0.00149303
0.00149569
0.00149792
0.00149534
0.00148992
0.00139603
0.00137715
0.00136353
0.00135673
0.00135322
0.0011697
0.00117236
0.00117962
0.00119638
0.00121591
0.00115513
0.00114158
0.00113108
0.00112735
0.00112642
0.000960377
0.000965542
0.000969883
0.000969036
0.000965334
0.000987644
0.00100164
0.00100221
0.000994595
0.000985824
0.000771743
0.000771866
0.000774375
0.000783337
0.000803729
0.000831587
0.000812439
0.000808631
0.000808869
0.000809308
0.000788282
0.000789445
0.000792847
0.000802722
0.000829355
0.000774841
0.00078192
0.000776439
0.000765746
0.00075625
0.000557266
0.000556937
0.000557285
0.000561985
0.000581636
0.000624062
0.000596453
0.000591749
0.000591565
0.000591927
0.000576962
0.000578217
0.000580891
0.000588389
0.00061605
0.000711557
0.000720842
0.0007146
0.000703528
0.000694016
0.000664502
0.000663406
0.000662931
0.000667613
0.000693704
0.000841096
0.000819443
0.000814767
0.000816638
0.000818938
0.000755923
0.000661919
0.000660687
0.000634808
0.000626535
0.000622113
0.000619049
0.000566615
0.000543952
0.000595766
0.000604839
0.000602025
0.000594598
0.000587986
0.000526546
0.000523858
0.000522449
0.000527548
0.000560019
0.000502348
0.000482827
0.000477952
0.000474192
0.000470736
0.000434815
0.000435153
0.000436435
0.000441145
0.000460493
0.000375253
0.000356739
0.00035232
0.000353705
0.00035538
0.000400583
0.000402754
0.000407237
0.000418623
0.000446118
0.000487962
0.000476351
0.000470019
0.000460106
0.000450706
0.000600785
0.000601164
0.000605905
0.000622793
0.0006623
0.000873063
0.000826377
0.000805769
0.000796207