/*--------------------------------*- C++ -*----------------------------------*\
  =========                 |
  \\      /  F ield         | OpenFOAM: The Open Source CFD Toolbox
   \\    /   O peration     | Website:  https://openfoam.org
    \\  /    A nd           | Version:  7
     \\/     M anipulation  |
\*---------------------------------------------------------------------------*/
FoamFile
{
    version     2.0;
    format      ascii;
    class       volVectorField;
    location    "4.25";
    object      wallShearStress;
}
// * * * * * * * * * * * * * * * * * * * * * * * * * * * * * * * * * * * * * //

dimensions      [0 2 -2 0 0 0 0];

internalField   uniform (0 0 0);

boundaryField
{
    outlet1
    {
        type            calculated;
        value           uniform (0 0 0);
    }
    Wall
    {
        type            calculated;
        value           nonuniform List<vector> 
40276
(
(0.000351774 5.24632e-05 0.000187194)
(-0.000186278 -7.78167e-06 0.000415219)
(-0.000189876 -7.1314e-06 0.000406974)
(0.000146775 -0.00011616 0.000150081)
(0.000112653 -7.42043e-05 0.000132046)
(8.22739e-05 -3.0417e-05 0.000129463)
(7.85768e-05 1.25557e-07 0.000136327)
(0.000108789 1.8683e-05 0.000156364)
(9.24829e-05 2.70741e-05 0.000149437)
(8.80986e-05 1.65614e-05 0.000151895)
(0.000430383 4.4136e-05 0.000459687)
(0.000519563 2.04465e-05 0.000501432)
(0.00058458 3.95068e-05 0.000938531)
(0.000563297 4.34091e-05 0.000870799)
(0.000396368 -2.18198e-06 0.000299737)
(0.00035852 1.57656e-05 0.000334337)
(0.000367868 3.40187e-05 0.000110213)
(0.000338065 3.05508e-05 5.961e-05)
(-4.66779e-05 -6.50293e-05 -6.7227e-05)
(-4.7234e-05 -9.17537e-05 -7.02855e-05)
(-0.000137097 3.49252e-05 0.000210183)
(-0.000167157 3.96589e-05 0.000197613)
(-0.000113533 3.06943e-05 6.74783e-05)
(-0.000131792 2.83165e-05 6.38921e-05)
(-9.65048e-05 2.29155e-05 4.31587e-05)
(-0.000108561 2.39597e-05 3.74985e-05)
(-0.000110046 3.80813e-05 1.74294e-05)
(-0.000108467 3.84336e-05 1.26147e-05)
(-0.00017659 5.67998e-05 3.33015e-05)
(-0.000155501 4.77965e-05 2.40454e-05)
(-0.00013364 4.39201e-05 8.54791e-05)
(-0.000151439 5.31345e-05 9.41805e-05)
(-5.25813e-05 -3.12968e-06 0.000159704)
(-4.68233e-05 -4.81632e-06 0.000148435)
(-5.42615e-05 9.85363e-06 7.02143e-06)
(-5.35971e-05 1.10984e-05 6.69877e-06)
(0.000582692 5.88788e-05 0.000168614)
(0.000630952 3.54033e-05 0.000174833)
(0.00111158 0.000264697 0.000325228)
(0.0012754 0.000349561 0.000348441)
(0.00100138 5.11081e-05 9.35286e-05)
(0.000946108 2.03525e-05 0.000118731)
(-3.90903e-05 -1.44654e-05 -0.000397262)
(-1.80287e-05 -1.15804e-05 -0.000369069)
(-4.06888e-05 -1.42834e-06 -0.000370126)
(-3.68781e-05 -6.51784e-06 -0.000314482)
(-6.58171e-05 3.47327e-07 -0.000322844)
(-5.11974e-05 -3.32563e-06 -0.000268757)
(-6.33598e-05 -6.35724e-07 -0.000239265)
(-6.39415e-05 1.55726e-06 -0.00020618)
(-5.42052e-05 -1.60809e-06 -0.000176784)
(-6.74854e-05 1.99685e-06 -0.000184203)
(-6.08604e-05 -4.2204e-07 -0.000154164)
(-6.41538e-05 3.11779e-06 -0.000155034)
(0.000436675 7.39677e-05 0.000230044)
(0.000452477 8.79111e-05 0.000199554)
(-3.17775e-05 1.92129e-05 0.000159471)
(6.39489e-05 2.20864e-05 0.000190528)
(-2.56423e-05 1.43565e-05 0.000162719)
(-0.000457499 -7.14251e-05 -0.000437582)
(-0.000482191 -6.0391e-05 -0.000444443)
(1.90122e-05 3.45606e-05 0.000290638)
(-1.27413e-05 -1.16782e-05 0.000224622)
(7.59655e-06 -4.03963e-07 -1.74678e-05)
(1.02124e-05 1.07845e-06 -1.26665e-05)
(6.60262e-06 8.48786e-08 -1.30034e-05)
(3.66731e-06 -9.22193e-07 -1.30495e-05)
(7.84657e-06 7.04312e-08 -1.59286e-05)
(-0.000107016 -1.24971e-05 -9.76997e-05)
(-0.000117688 -2.07359e-06 -0.000105792)
(-6.17517e-05 5.51703e-06 -0.000133553)
(-6.12079e-05 -2.70035e-07 -0.000136498)
(-2.77081e-05 2.08236e-06 -2.84103e-05)
(-2.74681e-05 2.07847e-06 -2.73038e-05)
(-2.43831e-05 2.03874e-06 -2.56304e-05)
(-2.33204e-05 2.58766e-06 -2.45257e-05)
(-2.6527e-05 1.20436e-06 -2.59519e-05)
(2.20026e-05 -1.38408e-06 -8.51221e-06)
(1.90457e-05 -1.53416e-06 -1.21108e-05)
(1.38718e-06 4.04411e-06 -4.37705e-08)
(2.28e-06 3.01465e-07 -1.51686e-08)
(8.50885e-06 -2.27541e-07 -5.21613e-07)
(1.81353e-05 -1.56691e-06 1.24649e-05)
(1.71997e-05 -1.59506e-06 1.25608e-05)
(2.29636e-05 -5.8069e-06 1.60341e-05)
(6.8266e-06 2.4568e-07 -8.73048e-06)
(4.14621e-06 -5.69578e-07 -8.94168e-06)
(6.82441e-06 2.69805e-07 -5.23259e-06)
(2.10061e-05 -6.06693e-06 1.51369e-05)
(2.00142e-05 -8.06132e-06 1.47935e-05)
(1.71835e-05 -7.63244e-06 1.32704e-05)
(-3.6295e-05 -3.11323e-06 -3.29104e-05)
(4.30416e-06 -3.08543e-07 -5.60326e-06)
(6.61217e-06 2.87191e-07 -2.56822e-06)
(4.35041e-06 -1.5637e-07 -3.06101e-06)
(4.04234e-06 -6.6068e-08 -1.18577e-06)
(3.57397e-06 -8.08635e-09 1.55008e-07)
(2.93949e-06 -1.11028e-08 9.77428e-07)
(1.89151e-08 -4.41362e-09 6.97126e-07)
(-7.75436e-07 -1.1803e-08 5.09078e-07)
(-1.6455e-06 -3.52126e-08 7.83447e-08)
(-5.11559e-06 -4.54452e-08 -3.82104e-06)
(-5.53234e-06 -6.50765e-08 -4.7738e-06)
(-4.09728e-05 4.22043e-07 -3.60194e-05)
(-5.91111e-06 -1.40012e-08 -5.9254e-06)
(-1.46472e-05 -7.15715e-06 -1.77861e-05)
(-1.2072e-05 -7.17972e-06 -1.40758e-05)
(-6.01488e-06 -8.08876e-08 -6.99919e-06)
(-6.05623e-06 -1.28778e-08 -8.27868e-06)
(-5.68496e-06 -2.71041e-07 -8.99211e-06)
(-5.98298e-06 -8.57326e-09 -9.79997e-06)
(-5.48745e-06 -3.40329e-07 -1.07128e-05)
(-5.31889e-06 -1.74027e-07 -1.12765e-05)
(-4.9772e-06 -6.36174e-07 -1.26004e-05)
(-4.90399e-06 -1.00218e-06 -1.20257e-05)
(3.90246e-06 -8.9032e-07 -2.52359e-05)
(3.36439e-06 -2.85234e-06 -2.71478e-05)
(1.51789e-06 -2.90456e-06 -2.58625e-05)
(-0.000270687 -6.25039e-05 0.00048348)
(-0.000273281 -6.09132e-05 0.000438524)
(-1.04312e-05 -1.21467e-06 5.42708e-06)
(-1.10893e-05 -1.52527e-06 8.15359e-06)
(-3.40483e-05 -2.36686e-06 2.08034e-05)
(-2.78369e-05 -3.37536e-06 1.84137e-05)
(-2.35155e-06 -1.45659e-05 -2.99555e-06)
(-6.35067e-07 -1.40954e-05 -1.03498e-06)
(-0.000127663 2.61608e-05 0.000184309)
(-0.000110766 3.50321e-05 0.000156645)
(-0.000160156 -1.61317e-05 0.00027424)
(-0.000139982 -2.21245e-05 0.000236152)
(-0.000103527 -5.09478e-06 0.000173827)
(-9.05936e-05 -8.1913e-06 0.000149634)
(-0.000157844 9.59683e-05 0.000471721)
(-0.00022005 0.000169344 0.0006622)
(8.16496e-06 -1.21541e-05 0.000188791)
(-3.80108e-07 -4.94069e-06 0.000159303)
(-0.000102045 2.75202e-05 0.000193114)
(-5.55157e-05 1.22684e-06 0.000167632)
(-0.000183337 -5.10419e-05 0.000496417)
(-0.000184036 -3.3035e-05 0.000496439)
(-0.000183626 -4.01478e-05 0.000528564)
(-0.000200671 -1.60645e-05 0.00053074)
(-0.000559441 2.28585e-06 -0.000151283)
(-0.000641587 2.91292e-06 -0.00018337)
(-2.27578e-05 -7.96789e-05 9.95887e-06)
(-2.6552e-05 -7.89428e-05 1.19251e-05)
(-2.14783e-05 -4.38287e-05 6.54251e-05)
(-2.52364e-05 -5.36091e-05 8.17517e-05)
(-2.90614e-05 -5.25099e-05 6.60327e-05)
(-2.32354e-05 -4.04223e-05 5.37022e-05)
(-1.547e-05 -8.61477e-05 8.48797e-06)
(-1.98973e-05 -9.83555e-05 6.53335e-06)
(-2.35013e-05 -8.3481e-05 8.81993e-06)
(-2.18881e-05 -8.64886e-05 9.21326e-06)
(-2.31359e-05 -0.000128638 -1.56102e-05)
(-1.99742e-05 -0.000111411 -1.41257e-05)
(-7.64338e-06 -5.66215e-05 -3.31685e-06)
(-9.87923e-06 -5.05368e-05 -4.75769e-06)
(-6.09758e-05 -3.11543e-05 9.45415e-05)
(-5.57627e-05 -3.29784e-05 8.93398e-05)
(8.28929e-05 4.40315e-06 -0.000237367)
(8.90343e-05 -4.20821e-06 -0.000222574)
(-0.000136596 -5.8377e-05 -1.24197e-05)
(-0.00013547 -6.52725e-05 -1.45966e-05)
(-0.000302073 -4.82694e-05 0.000141684)
(-0.000324096 -5.2502e-05 0.000132451)
(-0.000289648 -7.26062e-05 -2.58945e-05)
(-0.000283013 -6.00529e-05 -3.50113e-05)
(-0.000171297 0.000193541 0.000233283)
(-0.00016487 0.000242137 0.000216264)
(-0.000248452 -4.45916e-05 1.31558e-05)
(-0.000130638 -4.63235e-05 -1.83993e-05)
(-0.000206865 -7.78352e-05 7.47424e-05)
(-0.000178261 -7.62982e-05 6.32138e-05)
(-0.000227258 -5.18605e-05 5.87408e-05)
(-6.70851e-05 -4.1779e-05 -7.05832e-06)
(-3.91135e-05 -2.09031e-05 6.05179e-05)
(-3.22326e-05 -1.93805e-05 5.58719e-05)
(0.000647999 -0.000269933 0.000452693)
(0.000576192 -0.00022611 0.000370591)
(0.000586465 -0.000346036 0.000235834)
(0.000524639 -0.000243111 0.000263232)
(0.000543893 -0.000296426 0.000245434)
(0.000323681 -0.000256909 0.000182301)
(0.000425814 -0.000306215 0.000216613)
(0.000336134 -0.000248131 0.000187888)
(0.000520441 -0.000258576 0.000377613)
(0.000558407 -0.00031974 0.000364002)
(0.000535557 -0.000298779 0.000305556)
(0.000443888 -0.00032878 0.000185757)
(0.000543949 -0.000363342 0.000182572)
(0.000454956 -0.000289627 0.000230577)
(0.000206724 -0.00016705 0.000155461)
(0.000313956 -0.0002628 0.000179973)
(0.000247115 -0.000187925 0.00017678)
(0.000194962 -0.000160449 0.000161101)
(8.71358e-05 -3.89308e-05 0.00012995)
(0.000218431 8.58668e-05 8.62748e-05)
(0.000271989 8.91357e-05 0.000125622)
(0.000238147 6.42702e-05 0.000134609)
(0.00025038 5.31549e-05 8.42656e-05)
(0.000302616 5.66611e-05 0.000117729)
(0.000267786 8.20338e-05 0.000124532)
(0.000246445 6.58478e-05 0.00011028)
(8.77565e-05 5.56685e-06 0.000161226)
(8.57371e-05 1.58674e-05 0.000147826)
(0.000107353 1.41576e-05 0.000161486)
(0.000120116 6.19274e-06 0.000185208)
(0.000117584 1.49029e-05 0.000172447)
(0.000100496 1.9275e-05 0.000149461)
(0.000111855 -2.70125e-07 0.000191049)
(7.9706e-05 -2.22033e-06 0.000160909)
(5.42287e-05 -1.50957e-05 0.000131835)
(5.98956e-05 -2.45297e-05 0.000134593)
(7.97299e-05 2.11383e-06 0.000132878)
(4.06794e-05 -3.2986e-05 0.000108039)
(6.08167e-05 -1.30121e-05 0.000101813)
(4.35384e-05 -2.04957e-05 0.00010522)
(1.45794e-05 -3.60669e-05 8.7867e-05)
(2.44929e-05 -3.10219e-05 8.40103e-05)
(0.000111456 4.68646e-05 0.000116752)
(0.000128038 5.5348e-05 0.000117326)
(0.000130539 5.27523e-05 0.000121661)
(0.000128054 5.54433e-05 9.95532e-05)
(7.76656e-05 1.59109e-05 0.000135787)
(8.4235e-05 2.56305e-05 0.000112108)
(8.63181e-05 3.72899e-05 7.88211e-05)
(9.0102e-05 3.63031e-05 7.89173e-05)
(7.50932e-05 2.52994e-05 8.84461e-05)
(0.000195756 7.7217e-05 8.0651e-05)
(0.000148462 6.4488e-05 7.48093e-05)
(0.000217064 7.7272e-05 8.83865e-05)
(0.000206634 6.11846e-05 7.83719e-05)
(0.000165212 6.65221e-05 6.15792e-05)
(0.000161624 5.59112e-05 6.81548e-05)
(4.63328e-05 -7.11178e-06 0.000105944)
(4.8002e-05 1.6641e-06 9.81712e-05)
(3.26656e-05 -2.13321e-05 0.000109379)
(4.42837e-05 7.21007e-06 8.34953e-05)
(1.07252e-05 -2.51676e-05 6.88398e-05)
(1.80507e-05 -7.5059e-06 5.86551e-05)
(6.27488e-05 2.17081e-05 7.89221e-05)
(9.41973e-05 4.15117e-05 5.91553e-05)
(1.98201e-05 4.48746e-06 2.85949e-05)
(3.91147e-05 1.52154e-05 4.02456e-05)
(2.30889e-05 7.54977e-06 3.03362e-05)
(7.2996e-05 3.85321e-05 2.79188e-05)
(0.000109738 5.23563e-05 1.96877e-05)
(0.00010982 4.16705e-05 4.79895e-05)
(0.000102682 4.64237e-05 3.69811e-05)
(0.000300895 2.26303e-05 0.000525016)
(0.000339618 5.1253e-05 0.000615679)
(0.000304021 -5.11253e-06 0.000540932)
(0.000311807 2.45705e-05 0.000550044)
(0.000388553 0.000109055 0.000439751)
(0.000425787 0.000117272 0.000529443)
(0.00030377 0.000105254 0.000436699)
(0.00033536 0.000100095 0.000502857)
(0.000305173 0.000106091 0.000469506)
(0.00028901 8.8704e-05 0.000487421)
(0.00041267 0.000162156 0.000547224)
(0.000346451 0.000138247 0.000412756)
(0.000400278 0.000147015 0.00051928)
(0.000252864 9.43775e-05 0.000422822)
(0.000342158 0.000123194 0.000529137)
(0.000440142 0.000140648 0.000424809)
(0.0003828 0.00014058 0.000487021)
(0.000380013 0.000139636 0.000493481)
(0.000425648 0.000136904 0.00059576)
(0.000446251 0.000175111 0.000533284)
(0.000488775 0.000189311 0.000527514)
(0.000469538 0.000191049 0.000489119)
(0.000462029 0.000159528 0.000588551)
(0.000448371 0.000163691 0.000591012)
(0.000447374 8.36303e-05 0.000526508)
(0.000569811 9.00936e-05 0.000561437)
(0.000436392 0.000104557 0.000539745)
(0.000329225 0.000102972 0.000412427)
(0.000418355 0.000100297 0.000517968)
(0.000456196 7.86527e-05 0.000453466)
(0.00033933 6.24621e-05 0.000338135)
(0.000362041 0.000109427 0.000397868)
(0.000395704 9.20369e-05 0.000392125)
(0.000394305 0.000101791 0.000377666)
(0.000550277 -4.15313e-05 0.000492727)
(0.000569992 -6.15736e-05 0.000490507)
(0.000594948 -0.000163714 0.000460778)
(0.0004529 -6.96443e-05 0.000409968)
(0.000546732 -0.000139346 0.000348263)
(0.000421868 -9.94892e-06 0.000373684)
(0.000592695 -0.000153242 0.000369515)
(0.000391533 -3.17082e-05 0.000306412)
(0.000512136 -0.00011702 0.000283103)
(0.000622041 -0.000251694 0.000270475)
(0.000366108 6.30136e-05 0.000382185)
(0.000366528 9.16586e-05 0.000394126)
(0.000407153 2.32566e-05 0.000317928)
(0.000399937 6.57346e-05 0.000331856)
(0.00042743 0.000154272 0.000413289)
(0.000450615 0.000155038 0.000542124)
(0.000454146 0.000155401 0.000492994)
(0.000472792 0.000136679 0.000402205)
(0.000527992 0.000172842 0.000442581)
(0.000515955 0.000196304 0.00055259)
(0.000454696 0.000157792 0.000545587)
(0.000485877 0.00015832 0.000579627)
(0.000489634 0.000179703 0.00041211)
(0.000469978 0.000166048 0.000551379)
(0.000471673 0.000170591 0.000554918)
(0.000582014 0.00021022 0.000676543)
(0.000562198 0.00020149 0.000532693)
(0.000424166 0.000123602 0.00038611)
(0.000599118 0.000189154 0.000435107)
(0.000476077 0.000108586 0.000394844)
(0.000611154 0.000154093 0.000398284)
(0.000532117 0.000185641 0.000446316)
(0.000540031 0.000170825 0.000523667)
(0.00071886 0.000272514 0.000533595)
(0.000570477 0.00019463 0.000428376)
(0.000548075 0.000166926 0.000454277)
(0.000763675 0.000271131 0.000479707)
(0.000577175 0.000250499 0.000489308)
(0.000615462 0.000213556 0.000606824)
(0.000572035 0.000185321 0.000643163)
(0.000675504 0.000232913 0.000620484)
(0.00067836 0.000240612 0.000599203)
(0.000354442 0.00013597 0.000475702)
(0.000349792 0.000129308 0.000476426)
(0.000238244 6.65376e-05 0.000444378)
(0.000348574 0.000128287 0.000514365)
(0.00043338 0.000117139 0.000659103)
(0.000398135 0.00010783 0.000611991)
(0.000377303 0.000137438 0.000502511)
(0.000399941 0.000147876 0.00052776)
(0.000383465 0.000142228 0.000574455)
(0.000360104 5.46471e-05 0.000650743)
(0.000310668 3.29361e-05 0.000586931)
(0.000368269 0.000100045 0.000621977)
(0.000345038 8.72964e-05 0.000598151)
(0.000309167 3.12432e-05 0.000510646)
(0.000422886 0.000161204 0.000546994)
(0.000447753 0.000130769 0.000633351)
(0.000396262 0.000112107 0.000609467)
(0.000381561 -1.60225e-05 0.00063701)
(0.000477801 0.000135909 0.000729837)
(0.000358544 4.94824e-05 0.000628208)
(0.000464084 0.000179407 0.000542346)
(0.000508085 0.000191637 0.000587395)
(0.000454217 0.000136458 0.000651325)
(0.000435058 0.000164377 0.000571609)
(0.000505774 0.000195742 0.000581356)
(0.000506251 0.000118791 0.000714212)
(0.000512215 0.000133996 0.000791481)
(0.000407158 3.36517e-05 0.000690722)
(0.000371342 3.40995e-05 0.00061499)
(0.000403606 6.27147e-05 0.000656267)
(0.000459967 0.000119662 0.000691599)
(0.000391514 6.11696e-05 0.000614094)
(0.000511944 0.000207894 0.000614726)
(0.000513773 9.57665e-05 0.000762011)
(0.000592259 0.000181248 0.000858775)
(0.0002743 4.34638e-06 0.000480867)
(0.000287821 4.55334e-05 0.00049743)
(0.000347281 0.000124537 0.000544581)
(0.000366574 7.68024e-05 0.000620628)
(0.000341042 1.88839e-05 0.000566344)
(0.000432096 8.50658e-05 0.000688809)
(0.000327775 -1.92031e-05 0.000554147)
(0.000332656 2.88117e-05 0.000553764)
(0.000421352 0.00013527 0.000662858)
(0.000346556 4.06202e-05 0.000588376)
(0.000298582 3.1152e-05 0.000500516)
(0.000365472 -6.6293e-06 0.000601659)
(0.000312879 3.69627e-05 0.000524283)
(0.000343945 4.11564e-05 0.000565673)
(0.000416539 3.44528e-05 0.000680113)
(0.000323892 8.43834e-05 0.000556103)
(0.000322628 5.30235e-05 0.000541635)
(0.000409248 -6.18379e-05 0.000625508)
(0.000475405 0.000119125 0.000751289)
(0.000406987 -3.24439e-05 0.000689938)
(0.000519385 5.86933e-05 0.000849616)
(0.000396966 2.28542e-06 0.000666033)
(0.000418038 2.0238e-05 0.000690342)
(0.000528148 0.000152296 0.000769419)
(0.00042174 4.64943e-05 0.000674192)
(0.000480559 2.69518e-05 0.000766508)
(0.000514832 3.94528e-05 0.000842843)
(0.00052048 1.57787e-05 0.00083386)
(0.000415725 3.26092e-05 0.000664724)
(0.000467801 3.68427e-05 0.000742302)
(0.00041756 1.82646e-05 0.000662173)
(0.000473831 4.81557e-05 0.000749725)
(0.000550802 0.000170754 0.00070637)
(0.00054273 0.000191177 0.00063604)
(-2.10117e-05 -4.91044e-05 0.000160315)
(0.000566261 0.000145341 0.00079145)
(0.000492225 0.000130627 0.000684288)
(0.00062479 0.000229151 0.000683501)
(0.000576191 0.000218459 0.000613028)
(0.000615068 0.000213139 0.00069315)
(-2.52711e-05 -4.87744e-05 0.000159755)
(0.000550219 0.000170548 0.000732103)
(0.000562747 0.000200987 0.00066835)
(0.000611741 0.000222849 0.000702772)
(0.00055976 0.000162977 0.000782263)
(0.000625547 0.00016866 0.000924303)
(-2.2911e-05 -4.85595e-05 0.000157022)
(0.000466605 5.90272e-05 0.000743948)
(0.00043246 5.25376e-05 0.000715261)
(0.000464575 8.10193e-05 0.000717301)
(0.000528063 5.13644e-05 0.000803307)
(0.000463446 9.71537e-05 0.000712194)
(-2.53819e-05 -3.80638e-05 0.000160035)
(0.000576724 0.000227966 0.000677101)
(0.000599164 0.000115351 0.000851393)
(0.000686701 0.000211957 0.0009411)
(0.000659682 0.00021773 0.000786392)
(0.000727685 0.000257056 0.000661746)
(0.000790244 0.00029524 0.000658403)
(0.000647629 0.000186418 0.000845186)
(0.000607452 0.000172626 0.000759983)
(0.000640071 0.000261427 0.000629897)
(0.00067399 0.000240471 0.000686599)
(0.000652784 0.000207709 0.000771081)
(0.000715626 0.00024472 0.000817583)
(0.000748867 0.000286935 0.000792216)
(0.000667885 0.000207491 0.000850637)
(0.000688849 0.000166891 0.000952734)
(0.000563103 0.000130974 0.000797114)
(0.00063357 0.000136952 0.000987563)
(0.000511801 9.41659e-05 0.000767031)
(0.00059448 7.99262e-05 0.000900796)
(0.000740283 0.000244519 0.00093808)
(0.000613421 0.000193259 0.000783866)
(0.000658144 0.000172758 0.000937882)
(0.000549038 9.23576e-05 0.000884113)
(0.000564565 0.000145431 0.000806692)
(0.000744719 0.000134799 0.00104453)
(0.000643843 0.000140152 0.0010017)
(0.000593133 6.09498e-05 0.00095257)
(0.000589448 2.59338e-05 0.000938889)
(0.000477687 2.36902e-05 0.000793866)
(0.000467992 5.33205e-05 0.000742913)
(0.000606612 0.000117135 0.000878957)
(0.000623078 0.000129231 0.000971918)
(0.000580686 2.61049e-05 0.00090967)
(0.000599828 4.57447e-05 0.000942961)
(0.000605209 -2.53964e-05 0.000941728)
(0.000581754 5.21966e-05 0.000892365)
(0.000678742 0.000133805 0.000985074)
(-3.13582e-05 -4.3162e-05 0.000168425)
(0.000509566 2.43022e-06 0.000831717)
(0.000462394 5.32133e-05 0.000729846)
(0.000662471 0.000162364 0.000973962)
(0.000697089 0.000202234 0.00103987)
(0.000576658 3.48843e-06 0.000960361)
(0.000726439 7.81666e-05 0.00114305)
(0.000536523 5.59774e-05 0.000841714)
(0.000658673 4.36307e-05 0.00101037)
(0.000528724 8.01185e-05 0.0008386)
(0.000506542 1.04628e-05 0.000778345)
(0.000645093 -7.05247e-05 0.000959142)
(0.000710986 5.4261e-05 0.00112466)
(0.000709346 3.41631e-05 0.00111585)
(0.000333806 -4.83048e-05 0.000481859)
(0.000257515 1.84651e-05 0.00039787)
(0.000284658 1.21483e-05 0.000410152)
(0.000270571 7.8958e-06 0.000412141)
(0.00019559 3.49076e-05 0.000348356)
(0.000254859 3.0158e-05 0.000401075)
(0.00032375 1.02694e-05 0.000430303)
(0.000251769 4.70116e-05 0.000404257)
(0.000323993 3.97309e-05 0.000573824)
(0.000322207 5.44074e-05 0.000543661)
(-2.31234e-05 -4.18066e-05 0.00015359)
(-2.67931e-05 -4.38364e-05 0.00016049)
(-2.47921e-05 -4.05047e-05 0.000148657)
(-2.62752e-05 -3.68222e-05 0.000149519)
(0.000355921 3.68161e-05 0.000562821)
(0.000320079 7.54771e-05 0.000515842)
(0.000375659 2.14697e-05 0.000513758)
(0.000330402 4.16945e-05 0.000463029)
(0.000361658 4.0475e-06 0.000484552)
(0.000351947 2.64186e-05 0.000463797)
(-2.97186e-05 -3.62103e-05 0.000154904)
(0.000368624 1.12688e-05 0.000486467)
(-3.50438e-05 -2.88779e-05 0.000164981)
(-3.0134e-05 -3.4591e-05 0.000155986)
(0.000358357 2.53076e-05 0.000228361)
(0.000345415 2.74965e-05 0.000252697)
(0.000335646 6.14826e-06 0.000250953)
(-3.34748e-05 -3.44317e-05 0.000154011)
(-2.65271e-05 -3.8316e-05 0.000164682)
(-2.59211e-05 -4.18589e-05 0.000161221)
(-3.23288e-05 -3.3754e-05 0.000175118)
(-3.38709e-05 -4.22937e-05 0.000182731)
(-2.97119e-05 -3.02771e-05 0.000166722)
(-2.85725e-05 -2.62204e-05 0.000159518)
(-3.46742e-05 -3.44731e-05 0.000159096)
(0.000320713 6.09103e-05 0.000110388)
(0.000370889 6.07854e-05 0.000157539)
(0.000308157 3.80563e-05 0.000117872)
(0.00029846 6.25169e-05 0.000106036)
(0.000320477 5.08527e-05 0.000129894)
(0.000364783 2.37407e-05 0.000162473)
(0.000350523 2.5658e-05 0.000208536)
(0.000387475 -4.16953e-06 0.000227017)
(0.000380955 1.77506e-05 0.000196463)
(0.000350297 1.96548e-05 0.000224356)
(0.00035701 4.07455e-05 0.000140349)
(0.000372311 1.34606e-05 0.000151583)
(0.000354784 9.88788e-06 0.000348871)
(0.000332131 2.08025e-05 0.000369384)
(0.000345813 1.09629e-05 0.000397373)
(0.000302458 1.93977e-05 0.000377463)
(0.000327933 9.94799e-06 0.000397369)
(0.000272842 3.01501e-05 0.00037067)
(0.000392639 2.3773e-05 0.000402001)
(0.000406618 -1.48224e-06 0.000351537)
(0.000396589 6.36153e-06 0.000331584)
(0.000342862 1.18455e-05 0.000329567)
(0.00034826 2.85643e-06 0.000427273)
(0.000356946 5.87234e-06 0.000379955)
(0.000380597 3.55065e-05 0.000476226)
(0.000418545 2.8641e-06 0.00028422)
(0.000413288 -1.61492e-05 0.000358486)
(0.000414317 -2.1292e-05 0.000298613)
(0.00042922 -5.48953e-06 0.000363262)
(0.000447709 -3.54707e-05 0.000283641)
(0.00039842 -2.46419e-06 0.000406858)
(0.000389967 -8.55747e-06 0.000452712)
(0.000420261 -3.48723e-05 0.000433476)
(0.000425754 1.40997e-05 0.000508839)
(0.000488317 -3.25192e-05 0.000455617)
(0.000470815 -5.31698e-05 0.00038529)
(0.000472389 -5.34125e-05 0.000308059)
(0.000467614 -2.58575e-05 0.000385587)
(0.00040721 -1.7673e-05 0.000226848)
(0.000401737 -1.49156e-05 0.00018665)
(0.000430051 -1.20018e-05 0.000228667)
(0.00027326 6.68176e-05 7.43759e-05)
(0.000292412 5.73058e-05 0.000100593)
(0.000240097 7.03781e-05 5.04858e-05)
(0.000277861 6.59721e-05 6.80178e-05)
(0.000320091 3.88672e-05 9.97297e-05)
(0.000369071 1.4746e-05 0.000127209)
(0.000307172 5.10026e-05 9.34828e-05)
(0.000174811 6.38461e-05 2.7889e-05)
(0.000267851 7.92934e-05 4.28254e-05)
(9.04481e-05 4.11125e-05 4.59223e-05)
(0.00011151 4.77646e-05 3.1383e-05)
(0.000213051 8.06007e-05 2.41347e-05)
(0.000241219 6.69919e-05 6.82446e-05)
(0.000223008 3.82413e-05 5.21324e-06)
(0.000271288 5.13404e-05 6.05033e-05)
(0.000331422 3.98202e-05 4.21651e-05)
(0.00021764 6.82385e-05 2.02089e-05)
(0.000214021 5.14629e-05 2.78463e-05)
(0.000298265 5.46689e-05 3.50303e-05)
(0.000522342 -7.34971e-05 0.000273137)
(0.000534832 -8.07818e-05 0.000418624)
(0.000512519 -8.22249e-05 0.000341188)
(0.000548897 -6.90789e-05 0.000422506)
(0.00042057 -2.23896e-06 0.000173685)
(0.000468921 -6.12723e-05 0.000236993)
(0.000433019 -2.46166e-05 0.00020736)
(0.000438201 -3.71311e-05 0.000221571)
(0.000399814 2.60456e-06 0.000124791)
(0.000436014 -2.83483e-05 0.000174656)
(0.000521415 -8.00173e-05 0.000198492)
(0.000571101 -8.19769e-05 0.000265369)
(0.000586257 -0.00013691 0.000326702)
(0.000557832 -9.51365e-05 0.000245546)
(0.00051618 -8.45231e-05 0.000282335)
(0.000374547 2.25391e-05 6.72188e-05)
(0.000394543 2.7077e-06 8.08008e-05)
(0.000431755 -4.2988e-05 0.000139814)
(0.000402806 -4.27626e-07 9.82261e-05)
(0.000416251 -2.03368e-05 0.000104703)
(0.00032191 3.74495e-05 6.71339e-05)
(0.000375361 3.05845e-06 7.20971e-05)
(0.000552295 -7.46168e-05 0.00016834)
(0.000576138 -0.000119784 0.000198456)
(0.000616997 -0.000136909 0.000170047)
(0.000487071 -5.82327e-05 0.000154012)
(0.000448527 -2.60639e-05 0.000153186)
(0.000491163 -5.77367e-05 0.000129178)
(0.000289016 5.16062e-05 0.000493357)
(0.000306927 3.06988e-05 0.000507661)
(0.00034336 -1.98349e-05 0.000535683)
(0.000341017 1.0905e-05 0.000531532)
(0.00029062 6.83329e-05 0.000490171)
(0.000324153 5.63416e-06 0.00048925)
(0.000434785 -2.66806e-05 0.00064696)
(0.000305893 3.12047e-05 0.000502648)
(0.000337462 1.46844e-05 0.000520425)
(0.000383717 2.4589e-05 0.00059156)
(0.000375696 -1.65073e-06 0.000529495)
(0.000345057 1.90959e-05 0.000495598)
(0.000378014 2.04613e-05 0.000546596)
(0.00046341 -1.0738e-05 0.000661575)
(0.000476776 2.34716e-05 0.000786169)
(0.000356011 4.98061e-05 0.00057081)
(0.000402431 4.96049e-05 0.000651917)
(0.000396497 6.14224e-05 0.000666797)
(0.000422551 1.05085e-05 0.000651766)
(0.000557238 -6.35515e-05 0.00078878)
(0.000513071 -9.51197e-05 0.000694246)
(0.000418179 7.80647e-05 0.000693401)
(0.000437271 1.56544e-06 0.00065703)
(0.00038791 2.41304e-05 0.000565514)
(0.000432798 1.86955e-05 0.000626765)
(0.000424118 -1.25621e-05 0.000555922)
(0.000376345 3.69949e-06 0.000489069)
(0.000421938 7.41188e-06 0.000560802)
(-3.62193e-05 -2.99569e-05 0.000160968)
(0.000501551 -6.91347e-05 0.000635718)
(0.000459764 -2.39721e-05 0.000552595)
(0.000508209 6.15146e-06 0.000654125)
(0.000410689 4.70017e-06 0.000608372)
(0.000473729 -2.05138e-05 0.000632783)
(0.000539545 -2.35535e-05 0.000720277)
(0.00048418 -5.66205e-05 0.000545675)
(0.000467406 -5.16768e-05 0.000458989)
(0.000461291 -4.71198e-07 0.000559555)
(0.000628463 -2.88633e-05 0.000962316)
(0.000432151 3.08009e-05 0.000674651)
(-3.63673e-05 -2.57887e-05 0.000148775)
(0.000460519 9.13267e-06 0.000679503)
(0.000528488 1.16188e-05 0.000786615)
(0.000611994 -4.88656e-05 0.000881257)
(0.000612688 -8.75047e-05 0.000809223)
(0.000441619 -1.48437e-05 0.000597503)
(-4.14855e-05 -2.12296e-05 0.000160532)
(0.000538879 -0.00014235 0.00055804)
(0.000572024 -3.13941e-05 0.000733669)
(0.000599137 -4.91316e-05 0.000852697)
(0.000516683 -3.36916e-05 0.00071342)
(0.000580292 -1.23046e-05 0.000808547)
(0.000645327 -7.54689e-05 0.000816798)
(0.000562865 -3.43269e-05 0.000690534)
(0.00070902 -0.000155132 0.000843697)
(0.000610605 -0.000133867 0.000682044)
(0.000656534 -8.28847e-05 0.00082)
(0.000477112 3.97869e-05 0.000753681)
(0.00048016 -1.06234e-05 0.00071428)
(0.000588302 -3.66177e-05 0.000855331)
(0.000643373 -2.34654e-05 0.000972641)
(0.000624749 -0.000106021 0.000893214)
(0.000567974 7.66958e-05 0.000886063)
(0.000666395 -7.07083e-05 0.00100859)
(0.000623397 0.00010776 0.000991511)
(0.00058347 6.77965e-06 0.000897322)
(0.000568343 -1.57879e-05 0.000840082)
(0.000679723 -7.35161e-05 0.00096895)
(0.000552871 -4.46431e-05 0.000809476)
(0.000596401 -7.52487e-05 0.000797232)
(0.000685653 -8.84047e-05 0.000915383)
(0.000790517 -0.000142975 0.0010094)
(0.000601043 -0.000124237 0.000775799)
(0.000690682 -0.000194836 0.000733566)
(0.000733742 -8.05479e-05 0.000924683)
(0.000550155 -8.77726e-05 0.00048681)
(0.000472637 -9.95591e-05 0.000486318)
(0.000558839 -0.000123249 0.000498142)
(0.000550099 -3.13237e-05 0.000634608)
(0.000622653 -9.55931e-05 0.000672731)
(0.000597028 -0.000106758 0.00052063)
(0.000568439 -0.000133099 0.00045096)
(0.000613179 -0.000144107 0.000342979)
(0.000580391 -9.54027e-05 0.000440978)
(0.000666364 -0.000165819 0.000526042)
(0.000664352 -0.000210562 0.000392206)
(0.000670111 -0.000161633 0.000504772)
(0.000687062 -0.000166727 0.000682201)
(-4.4202e-05 -1.70601e-05 0.000158768)
(0.000634079 -0.000186875 0.000543533)
(0.00066421 -0.000135527 0.00067388)
(0.000789681 -0.000256436 0.000805279)
(0.000741515 -0.000260431 0.000599378)
(0.000732189 -0.00015967 0.000764652)
(-4.74907e-05 -1.23731e-05 0.000160074)
(0.000752773 -0.000256541 0.000597768)
(0.000782897 -0.00029712 0.000439115)
(-3.59931e-05 -3.431e-05 0.000183219)
(0.000709183 -0.000175906 0.000595135)
(0.000622207 -0.00015196 0.000359679)
(-4.00443e-05 -2.70236e-05 0.000186462)
(0.000640887 -0.000149905 0.000304372)
(0.00062525 -0.000139821 0.00034246)
(-3.42815e-05 -3.41385e-05 0.000168512)
(0.000724535 -0.00016463 0.000268966)
(-3.74314e-05 -1.66854e-05 0.000169858)
(-4.07211e-05 -2.86043e-05 0.000183304)
(0.000707564 -0.000254123 0.000342137)
(0.000694542 -0.00021508 0.000294049)
(-4.18775e-05 -2.71811e-05 0.00018297)
(0.000682584 -0.000173604 0.000415375)
(0.000502595 -0.000332921 0.00021798)
(-4.54113e-05 -1.97587e-05 0.000178257)
(0.000554615 -0.000373574 0.000155812)
(0.000447774 -0.000314413 0.000151439)
(-4.4433e-05 -2.04095e-05 0.000182377)
(0.000366584 -0.00027806 0.000182109)
(0.000430566 -0.000326194 0.00016615)
(-4.83239e-05 -1.30282e-05 0.000191076)
(0.000319545 -0.000258057 0.000134175)
(0.000388638 -0.000264919 0.000234264)
(-3.71623e-05 -1.95934e-05 0.000164398)
(-3.36714e-05 -1.73737e-05 0.000151632)
(0.000429507 -0.000305012 0.000152325)
(-3.92992e-05 -2.3768e-05 0.000154089)
(-4.11555e-05 -1.8186e-05 0.000168377)
(0.000252432 -0.000205916 0.000156544)
(-3.96073e-05 -1.58141e-05 0.000152952)
(-4.35276e-05 -1.31945e-05 0.000166755)
(0.000316759 -0.000262325 0.000159599)
(-4.21234e-05 -1.25887e-05 0.000151115)
(0.000225429 -0.000189595 0.000129888)
(0.000139752 -0.000128318 9.9061e-05)
(0.000223075 -0.00018884 0.000153343)
(0.000158144 -0.000126307 0.000126561)
(0.000127745 -0.000109339 0.000102422)
(0.000186121 -0.000139707 0.0001381)
(0.000134145 -0.000119073 9.7907e-05)
(0.000253007 -0.000177832 0.000194405)
(0.000291541 -0.00021345 0.000162774)
(0.000310587 -0.000286272 8.24363e-05)
(0.000453338 -0.000358408 0.000106075)
(0.000321571 -0.000245734 0.000139451)
(0.000164114 -0.000154088 7.5797e-05)
(0.00029857 -0.00026173 0.000110923)
(0.000216386 -0.000171571 0.000133823)
(0.000183239 -0.000159524 0.000130118)
(0.00021963 -0.000162258 0.00016136)
(0.000271031 -0.000202811 0.000134409)
(9.92486e-05 -0.000117016 4.64889e-05)
(0.000169154 -0.000135099 0.000110468)
(0.000127962 -0.000123744 8.32456e-05)
(5.29765e-05 -2.81977e-05 7.11879e-05)
(8.13985e-05 -5.97613e-05 8.68642e-05)
(7.11471e-05 -3.47829e-05 9.5412e-05)
(6.56339e-05 -2.26999e-05 9.60259e-05)
(6.18133e-05 6.49579e-06 9.70239e-05)
(4.03972e-05 -6.48803e-06 6.77239e-05)
(-2.55186e-05 -3.87126e-05 0.000144936)
(4.87127e-05 -6.40171e-06 7.79768e-05)
(4.32672e-05 -1.45145e-05 5.88163e-05)
(4.42908e-05 7.52213e-06 7.06148e-05)
(3.3237e-05 1.44885e-05 5.20011e-05)
(0.000116028 -0.000103487 0.000103202)
(-2.83347e-05 -3.54171e-05 0.000147286)
(7.13899e-05 -5.82252e-05 7.49694e-05)
(0.00012006 -8.61586e-05 0.00011115)
(9.53255e-05 -7.25142e-05 9.31191e-05)