/*--------------------------------*- C++ -*----------------------------------*\
  =========                 |
  \\      /  F ield         | OpenFOAM: The Open Source CFD Toolbox
   \\    /   O peration     | Website:  https://openfoam.org
    \\  /    A nd           | Version:  7
     \\/     M anipulation  |
\*---------------------------------------------------------------------------*/
FoamFile
{
    version     2.0;
    format      ascii;
    class       volScalarField;
    location    "2.5";
    object      p;
}
// * * * * * * * * * * * * * * * * * * * * * * * * * * * * * * * * * * * * * //

dimensions      [0 2 -2 0 0 0 0];

internalField   nonuniform List<scalar> 
382612
(
0.00225321
0.00215164
0.0021274
0.00214066
0.00201178
0.0024698
0.00225633
0.0020549
0.00192499
0.00183517
0.00191877
0.00191082
0.00190945
0.00207074
0.00204067
0.00225187
0.00215183
0.00228858
0.00216888
0.00221264
0.0022511
0.00230171
0.00235283
0.00247134
0.00243908
0.00240122
0.00236971
0.00303667
0.00310443
0.00315982
0.00320568
0.00298535
0.00296972
0.00295151
0.00292477
0.00279129
0.0022932
0.00226171
0.00237235
0.00243051
0.00248469
0.00253479
0.0025256
0.00249678
0.00246071
0.00242035
0.00233457
0.00235624
0.00238926
0.00241767
0.00252728
0.00248559
0.00244057
0.00239438
0.00230738
0.00227057
0.00224692
0.00220563
0.00231483
0.00229425
0.00239089
0.00244239
0.00248163
0.00284236
0.00241127
0.00220082
0.0026579
0.00283063
0.00293613
0.00315913
0.00319174
0.0032003
0.00320601
0.00355122
0.00353611
0.00351554
0.00347798
0.00332236
0.00298152
0.00315324
0.00321957
0.00326198
0.00329154
0.00370358
0.00370805
0.00370908
0.00366312
0.00337206
0.00255106
0.00278291
0.00284202
0.00287135
0.00289087
0.00306941
0.00308203
0.00309514
0.00306644
0.00284747
0.00231612
0.00226766
0.00235494
0.00239382
0.00243568
0.0024829
0.00238169
0.00236391
0.00234475
0.0023362
0.0021741
0.00221356
0.00225076
0.00228045
0.00250779
0.0024577
0.00240687
0.00235924
0.00226131
0.00203986
0.00203653
0.00208097
0.00211534
0.00214073
0.00230184
0.00224709
0.0021942
0.0021442
0.00202704
0.0018458
0.00199499
0.00225212
0.0023011
0.00232477
0.00233749
0.00255614
0.00256025
0.00256533
0.002558
0.00259907
0.00256071
0.002515
0.00249921
0.00248238
0.00246923
0.00201352
0.00199514
0.0019728
0.00194591
0.00212415
0.00216673
0.0021997
0.00222672
0.00224835
0.00221823
0.00218858
0.00216508
0.00218599
0.00212511
0.0020665
0.00206887
0.00208498
0.00210054
0.00200348
0.00211076
0.0021326
0.00188428
0.00190731
0.00193676
0.0022765
0.00248335
0.00176535
0.00183895
0.00214224
0.00186046
0.00191495
0.00190439
0.00190129
0.00191066
0.00192285
0.00192878
0.00259325
0.00260675
0.00262672
0.00263577
0.00253776
0.00184424
0.00185188
0.00185581
0.00186546
0.00187438
0.00241303
0.00243452
0.00246638
0.00249239
0.00246438
0.0020945
0.00226694
0.00231682
0.00232488
0.0023259
0.00232918
0.00203348
0.00203412
0.00203769
0.00205016
0.00154418
0.00155944
0.00157636
0.00158493
0.00211852
0.00210687
0.00209224
0.00207977
0.0021012
0.00153917
0.00151334
0.00205905
0.0019594
0.00153243
0.00178353
0.00201814
0.00171518
0.00199211
0.00195385
0.00174124
0.00147334
0.00182066
0.0018938
0.00168758
0.00154477
0.00181038
0.0018987
0.00183271
0.00204267
0.00200982
0.00186868
0.00177587
0.00202733
0.00195123
0.00202324
0.00212132
0.00217417
0.0021008
0.00222985
0.00233159
0.00212283
0.00202985
0.0020988
0.00211895
0.00214751
0.00217942
0.00248108
0.00247001
0.00245032
0.00239528
0.00279073
0.00277201
0.00275472
0.00273723
0.00337515
0.00335902
0.00334191
0.00329997
0.00309511
0.0028496
0.00274948
0.00280775
0.00283905
0.00285167
0.00286417
0.00244634
0.00244425
0.00243179
0.00240928
0.00242648
0.00304836
0.00303488
0.00305284
0.00307072
0.00308435
0.00298465
0.00296563
0.00293642
0.00291202
0.00292094
0.00330559
0.0032893
0.00329369
0.00331177
0.00332688
0.00361847
0.00361615
0.00361122
0.00359132
0.00347551
0.00336227
0.00354169
0.003589
0.00361163
0.0036252
0.00417951
0.00418261
0.00418515
0.00414399
0.0038401
0.00290677
0.00299418
0.00302117
0.00305079
0.00307615
0.00309152
0.00307734
0.00305769
0.00301628
0.0028232
0.0024968
0.00263978
0.00269411
0.00273281
0.00275913
0.00320342
0.00322118
0.00324643
0.00323851
0.0030313
0.00194899
0.00201998
0.00204282
0.00207381
0.00210191
0.00244877
0.0025237
0.00255001
0.00256865
0.00258145
0.00225762
0.0022309
0.00219629
0.00216556
0.00208334
0.0027318
0.00284835
0.00284258
0.00281158
0.00278702
0.00184865
0.00183027
0.00180644
0.00178888
0.00175449
0.00248921
0.00249325
0.0024643
0.00242974
0.00240572
0.0017009
0.00169745
0.00169288
0.0017019
0.00176696
0.00174824
0.00172294
0.00172709
0.00174327
0.00175686
0.00218596
0.00220931
0.0022416
0.00227708
0.00233234
0.00175694
0.00166448
0.00165468
0.00166167
0.00166673
0.00220578
0.00222166
0.0022445
0.00226512
0.00225162
0.00198616
0.00209484
0.00211723
0.00212431
0.00212488
0.0021256
0.00193672
0.00193562
0.00193539
0.00194297
0.00166838
0.0016707
0.00167724
0.00168039
0.00201395
0.00201138
0.00200699
0.00200209
0.00200313
0.00167843
0.00189253
0.00184723
0.00184257
0.00184669
0.00184872
0.00173718
0.00182485
0.00208119
0.00202981
0.00200673
0.00199219
0.00198192
0.00188096
0.00188338
0.00188512
0.00188329
0.00205601
0.00205453
0.00205107
0.00204901
0.0020558
0.00205652
0.00205785
0.00205739
0.00190783
0.00191314
0.00191656
0.00191676
0.00205159
0.00206028
0.00207018
0.00207958
0.00211058
0.00191257
0.00205657
0.00207625
0.00198632
0.00165667
0.00190489
0.00193367
0.00168829
0.00166666
0.00194398
0.00193691
0.00158554
0.00211786
0.00215631
0.00206933
0.0019739
0.00186996
0.00205068
0.00171603
0.00172029
0.00177098
0.00193091
0.00206719
0.00200483
0.00198917
0.00198495
0.00198344
0.00193321
0.00192944
0.00192345
0.00192365
0.00195846
0.00222058
0.00220515
0.00218925
0.00218256
0.002182
0.00218276
0.00218624
0.00219403
0.00221179
0.00226165
0.0020924
0.00208706
0.00208482
0.00208378
0.00208081
0.00207928
0.0020693
0.00206643
0.00206309
0.00206391
0.00186505
0.0018698
0.00187278
0.00187308
0.0019915
0.00199313
0.00199491
0.00199652
0.00200814
0.00185039
0.00200601
0.00198175
0.00197779
0.00197449
0.00197074
0.00192312
0.00196631
0.00196408
0.00193565
0.00193711
0.00194229
0.00194487
0.00208265
0.0020812
0.00207808
0.00207703
0.00209892
0.00222599
0.00222984
0.00222202
0.00221668
0.0022148
0.00213188
0.00213162
0.0021327
0.00214262
0.00218716
0.00220426
0.00217924
0.00217227
0.00216754
0.00216416
0.00203788
0.0020355
0.00203234
0.0020316
0.00207924
0.00207563
0.00207014
0.00206646
0.00206614
0.00206919
0.00207302
0.00207578
0.00205144
0.00205157
0.00205327
0.00205352
0.00218765
0.00218222
0.00217441
0.00216961
0.00219267
0.00207227
0.00208336
0.00210786
0.00213762
0.00193741
0.00201669
0.00205514
0.00194895
0.00174414
0.00195437
0.00199197
0.00178609
0.00220461
0.00215648
0.00210952
0.00213292
0.00204075
0.00207999
0.00209648
0.0020644
0.00215479
0.00207842
0.00206007
0.00202482
0.00202115
0.00202506
0.00202798
0.00214618
0.0021435
0.0021388
0.00213386
0.00213905
0.00223727
0.00223564
0.00223233
0.00223089
0.00223038
0.00219001
0.00219095
0.00219155
0.00219313
0.00220946
0.00227731
0.00226866
0.00226752
0.0022666
0.00226598
0.00227176
0.00226516
0.00225604
0.00224747
0.0022533
0.00215406
0.0021293
0.00212502
0.00212155
0.00211748
0.00222898
0.00222215
0.00221336
0.0022043
0.00221052
0.0021299
0.00208851
0.0020883
0.00209257
0.00209354
0.00209349
0.00209306
0.00208949
0.00208513
0.00208853
0.00211602
0.0021176
0.00212047
0.00212297
0.00209194
0.00209143
0.00209092
0.00208886
0.0020868
0.00212555
0.00213625
0.00210649
0.00212856
0.00215274
0.00198656
0.00203916
0.00211143
0.00208039
0.00214229
0.00211096
0.00202939
0.00199675
0.00183953
0.00193897
0.00207648
0.00211839
0.00204565
0.00204374
0.00203157
0.0019907
0.00208732
0.00213713
0.00216357
0.00210709
0.00203207
0.00203147
0.00203616
0.00203959
0.00204152
0.0021866
0.00218807
0.00219194
0.00220013
0.00220895
0.00226011
0.00225947
0.00225521
0.00225314
0.00225236
0.00219633
0.00219243
0.00218651
0.0021807
0.00219024
0.00228894
0.002303
0.00230656
0.00230722
0.00230746
0.0023696
0.00236915
0.00236966
0.00236871
0.00234922
0.00227045
0.00226713
0.00227257
0.00227963
0.00228439
0.00237735
0.00237699
0.00237597
0.00237108
0.00235522
0.00231224
0.00232029
0.00232513
0.00232851
0.00233051
0.00219414
0.00219124
0.00218675
0.0021793
0.00216215
0.00211278
0.00209817
0.0021099
0.00211419
0.00211381
0.00211197
0.0021251
0.00212234
0.00211847
0.00211495
0.00216749
0.00217084
0.00217655
0.00218369
0.00213246
0.00212943
0.00212389
0.00211408
0.00209365
0.00215407
0.00224132
0.00226383
0.00227196
0.00227971
0.00228635
0.00230401
0.00229608
0.00228878
0.00228265
0.00225997
0.00215167
0.00210577
0.00212921
0.00213661
0.0021424
0.00214931
0.00220213
0.00219017
0.00217684
0.00216812
0.00217355
0.002189
0.00220096
0.00220916
0.00218521
0.00217327
0.00216081
0.00214275
0.00208521
0.00213885
0.00226055
0.00215821
0.00206226
0.00208727
0.00231593
0.00219716
0.00206931
0.00209049
0.0022113
0.00213538
0.00208938
0.00209277
0.00200545
0.00203118
0.00214952
0.00228518
0.00218576
0.00212519
0.00206505
0.00210652
0.00182562
0.00194132
0.00189668
0.00173177
0.00151918
0.00177832
0.00181678
0.00160924
0.00168257
0.00186981
0.00191656
0.00174895
0.00174874
0.00194467
0.00191579
0.00167139
0.00188774
0.00190097
0.00201543
0.00201847
0.00214617
0.00208294
0.00206515
0.00205973
0.0020577
0.00204335
0.00204612
0.00205311
0.00206829
0.00208396
0.00215233
0.00214178
0.00213037
0.00212424
0.0021213
0.00197552
0.001975
0.00197328
0.00196944
0.00196644
0.00201383
0.00198465
0.00197277
0.00196847
0.00196704
0.0020337
0.00203462
0.00203728
0.00204378
0.00205449
0.00209578
0.00208817
0.00208563
0.00208661
0.00208752
0.00212217
0.00212028
0.0021155
0.00210817
0.00210432
0.00217073
0.00218391
0.00219513
0.00220021
0.00220238
0.00230971
0.00230824
0.0023071
0.0023063
0.00229883
0.00235091
0.00236211
0.0023651
0.00236683
0.00236783
0.00243664
0.00243389
0.00242986
0.00242355
0.00240681
0.00245945
0.0024855
0.00249521
0.00249964
0.00250205
0.00237975
0.00237286
0.00236325
0.00235495
0.00234975
0.00238055
0.00241059
0.00242161
0.00242579
0.00242761
0.00235644
0.00235567
0.00235258
0.00234522
0.00232298
0.00243544
0.00248735
0.00250217
0.00250357
0.00250179
0.00223967
0.00222752
0.0022134
0.00220255
0.00221037
0.00223387
0.00225093
0.00226625
0.00226701
0.00225058
0.00223307
0.00221194
0.00215813
0.0022395
0.00226533
0.00227708
0.00229195
0.00230479
0.00241123
0.00240789
0.0024012
0.00239095
0.00236684
0.0023825
0.00245475
0.00247457
0.00248609
0.00249614
0.00231929
0.00230061
0.00228056
0.0022674
0.00219272
0.00221393
0.00223557
0.00225753
0.00225667
0.0022354
0.00221284
0.00218576
0.00223142
0.00224911
0.00226701
0.00228239
0.00252108
0.00252064
0.00251693
0.00249679
0.00241931
0.00218827
0.0021213
0.00217406
0.00224472
0.00234371
0.00220863
0.00216301
0.00229874
0.00220231
0.00214852
0.00212419
0.00215075
0.00224909
0.0021256
0.00223655
0.00245655
0.00234608
0.00214941
0.00217436
0.0022791
0.00199808
0.0020017
0.00200361
0.0019861
0.00152543
0.00180448
0.00182677
0.00157804
0.00165966
0.00190846
0.00195688
0.00180466
0.00199903
0.00214024
0.00206335
0.00205124
0.00201567
0.00196777
0.00189374
0.00179594
0.00166083
0.00149644
0.001418
0.00143484
0.00144378
0.00144567
0.00144492
0.00168915
0.00168769
0.00168882
0.00169849
0.0017119
0.00175171
0.00176528
0.00177708
0.00178254
0.00178469
0.00196068
0.0019585
0.0019572
0.00195941
0.0019551
0.00198678
0.00203013
0.00203174
0.0020284
0.00202657
0.00197928
0.00197818
0.00197423
0.00196411
0.0019326
0.00212765
0.00213609
0.00213631
0.00213822
0.00214051
0.00223478
0.00223581
0.00223792
0.00223715
0.0022041
0.00216058
0.0021886
0.00219966
0.00220482
0.00220654
0.00230624
0.00230196
0.00229689
0.00229379
0.00229082
0.00231576
0.00233919
0.00235288
0.00236024
0.00236336
0.00254203
0.00253923
0.00253738
0.0025351
0.00250771
0.00258276
0.00260349
0.0026077
0.002611
0.00261404
0.0025461
0.00253873
0.00252811
0.00251585
0.00249227
0.0025385
0.00257599
0.00258723
0.00259099
0.00259192
0.00239793
0.002387
0.00237312
0.00236394
0.00237261
0.00251157
0.00253561
0.00254281
0.00254978
0.0025557
0.00258467
0.0025824
0.00257731
0.00256339
0.00252277
0.00263919
0.00265427
0.00266213
0.00267251
0.0026811
0.00257712
0.00257191
0.00256487
0.00255641
0.00253556
0.00236451
0.00239707
0.00241382
0.00242716
0.00243651
0.00240248
0.00239591
0.00238841
0.00237784
0.00234295
0.00222606
0.00213279
0.0021461
0.00215901
0.00217216
0.00218615
0.00226132
0.00224894
0.00223553
0.00222941
0.00227311
0.00228583
0.00230227
0.00231584
0.00227705
0.00225789
0.00223852
0.00221613
0.0021754
0.00225603
0.00224663
0.00217676
0.00212439
0.00220154
0.00224454
0.00211786
0.00219738
0.002363
0.00234696
0.00213583
0.0021143
0.00218338
0.00230144
0.00211797
0.00214631
0.00236511
0.00207259
0.00205142
0.00207522
0.0021338
0.00218801
0.00210435
0.00208951
0.00220416
0.00197566
0.00201049
0.00213914
0.00226173
0.00218199
0.0023184
0.00238773
0.00237946
0.00227697
0.00213049
0.00197244
0.0017988
0.00160676
0.00143318
0.0012418
0.00107247
0.00101704
0.00103598
0.00103857
0.00103438
0.0010296
0.00124223
0.00124138
0.00124315
0.00125053
0.00125226
0.00141792
0.0014432
0.00145401
0.00145505
0.00145271
0.00166858
0.00166659
0.00166627
0.00167052
0.00166591
0.00182576
0.00182296
0.00182024
0.00182089
0.00182198
0.00185303
0.00184964
0.00184554
0.00184322
0.00183242
0.00204724
0.0020458
0.00204629
0.00205019
0.00205375
0.00211009
0.00210536
0.00209942
0.00209368
0.0020809
0.00227929
0.00227989
0.00228475
0.00229126
0.00229613
0.00243053
0.00242792
0.00242116
0.00240737
0.00238205
0.00247073
0.00248238
0.00249125
0.00249977
0.00250591
0.0026396
0.00263687
0.00263231
0.00262095
0.00257903
0.00263756
0.00266444
0.00267549
0.00268221
0.00268712
0.00269396
0.00268837
0.0026798
0.00266747
0.00264673
0.00255648
0.00258359
0.00259913
0.00261339
0.00262408
0.0027297
0.00272489
0.00271941
0.00271203
0.00268586
0.00260573
0.00264936
0.00261563
0.00251896
0.00259441
0.00263073
0.00263697
0.00263888
0.00264116
0.00259865
0.00259386
0.00258483
0.00257069
0.00254988
0.0026871
0.00270751
0.00271374
0.00271952
0.00272465
0.00276874
0.00276526
0.00276046
0.00275164
0.00272184
0.00267504
0.00270515
0.00271406
0.00272053
0.00272529
0.00254167
0.00253274
0.0025216
0.00251304
0.00250509
0.00247888
0.00251006
0.00252136
0.00252702
0.00253033
0.0023867
0.00238472
0.00238127
0.00237224
0.00234822
0.00217477
0.00209992
0.00212637
0.00214204
0.00215506
0.00216807
0.00221435
0.00220571
0.00219436
0.00218575
0.00218094
0.00218644
0.00219571
0.00220313
0.00216639
0.00216244
0.00215728
0.00214723
0.00212637
0.00218713
0.00223547
0.00215448
0.00214083
0.00221466
0.00229649
0.00238779
0.00240097
0.0023633
0.0023798
0.002388
0.00239138
0.00239326
0.00228269
0.00228015
0.00227614
0.0022741
0.00229017
0.00221202
0.00223302
0.00223572
0.0022322
0.00222823
0.00218202
0.00218226
0.00218313
0.0021827
0.00218563
0.0020889
0.00203297
0.00203136
0.00203242
0.00203278
0.00203402
0.00209225
0.00209332
0.0020934
0.00209135
0.00214201
0.00214221
0.00214639
0.00215026
0.00209802
0.00209671
0.00209518
0.00209105
0.00208459
0.00215538
0.0022064
0.0020982
0.00206716
0.00211533
0.00212519
0.0020705
0.00205168
0.00207387
0.00205755
0.00203713
0.00203515
0.00203548
0.00187445
0.00196276
0.00200652
0.00201818
0.00200979
0.00201678
0.00201777
0.00204054
0.00202889
0.00202014
0.00203949
0.0020217
0.00206916
0.00204153
0.00195544
0.00190808
0.00167424
0.00189406
0.00194232
0.00183017
0.00210777
0.00203145
0.00194814
0.00191916
0.0018056
0.00190068
0.00187615
0.00175895
0.00128628
0.00173282
0.00170375
0.00124343
0.00116834
0.00168429
0.00175261
0.00143297
0.00135936
0.00173201
0.00169325
0.00129047
0.00154668
0.00181315
0.0018858
0.00162014
0.00148464
0.00180679
0.00176588
0.00138227
0.00130155
0.0017298
0.00180399
0.0014606
0.00142694
0.00179472
0.00187343
0.00153082
0.00151132
0.0015925
0.00152714
0.00158167
0.00151533
0.00150827
0.00151012
0.00150916
0.0016141
0.0016119
0.00160888
0.00161571
0.00167256
0.00215874
0.00204999
0.00201834
0.0019999
0.00198841
0.00166386
0.0016611
0.00165798
0.00167179
0.001775
0.00211418
0.00208324
0.00205633
0.00203852
0.00202822
0.00186592
0.00185274
0.00183799
0.00183773
0.00190793
0.00174039
0.00160646
0.00147288
0.00153271
0.00147495
0.00146686
0.00146747
0.00146567
0.00168899
0.00169069
0.00169094
0.00169385
0.00173826
0.00205884
0.00199023
0.00196443
0.00195364
0.00194849
0.00176133
0.0017587
0.00175562
0.001765
0.00183928
0.00210484
0.0020896
0.00206987
0.00205759
0.00205059
0.00185296
0.00184772
0.00184272
0.00185477
0.00195734
0.00184071
0.00176778
0.00169436
0.00172838
0.00172902
0.00166654
0.00165548
0.0016562
0.00165799
0.00189047
0.00189561
0.00190592
0.00192527
0.00194348
0.00197604
0.00194995
0.00193339
0.00192591
0.00192271
0.00184347
0.00184168
0.00183936
0.00184324
0.00187927
0.00194792
0.00189217
0.0018858
0.00188799
0.00188993
0.00190111
0.00203251
0.00196138
0.00191705
0.0017648
0.0017283
0.00169682
0.00169515
0.0016986
0.00170084
0.00194232
0.00194373
0.0019512
0.00196861
0.00198532
0.00195817
0.00194248
0.00193266
0.00193069
0.00193173
0.00176443
0.00176339
0.00175971
0.00175263
0.00175207
0.00176549
0.00173606
0.0017225
0.00171894
0.00171864
0.00145155
0.00145089
0.00144751
0.00143849
0.00142304
0.00136264
0.00136432
0.00135646
0.00135269
0.00135108
0.0012584
0.00125918
0.00126169
0.00127075
0.00128318
0.00108503
0.00108878
0.00108244
0.0010812
0.0010823
0.00104772
0.00105465
0.00106431
0.0010713
0.00105928
0.000856246
0.000824094
0.000816365
0.000814158
0.000813215
0.000826781
0.000826403
0.000828073
0.000834665
0.000860827
0.00104814
0.00104985
0.00105158
0.0010461
0.00103846
0.00119983
0.0011987
0.0011991
0.00120599
0.00122348
0.00142857
0.00141608
0.00141413
0.00141629
0.00141888
0.00165337
0.00165728
0.00165896
0.00165104
0.00162115
0.00189144
0.0019093
0.00190494
0.00189874
0.00189579
0.0019275
0.00193189
0.00193277
0.00192241
0.00189595
0.00213635
0.00214067
0.00213714
0.0021358
0.0021373
0.00240561
0.00240464
0.00240428
0.00239956
0.0023659
0.0023684
0.00239553
0.0024093
0.0024153
0.00241683
0.00249992
0.00249164
0.00248235
0.00247713
0.00248674
0.00254585
0.00256792
0.00257355
0.00257637
0.00257877
0.00265764
0.00265454
0.00265064
0.00264481
0.00262404
0.0025643
0.00257822
0.00258697
0.0025934
0.00259782
0.00264511
0.00263983
0.00263299
0.00262626
0.00261282
0.00259425
0.00260023
0.00260643
0.00261303
0.00261813
0.00256921
0.00256762
0.00256489
0.00255935
0.00255659
0.00244293
0.00244285
0.0024468
0.00244933
0.00245026
0.00242802
0.00242918
0.00243365
0.00244591
0.00246874
0.00238177
0.00236151
0.00234975
0.00234453
0.00234212
0.00223479
0.0022364
0.00224069
0.00225218
0.00228155
0.00220223
0.00217226
0.00216881
0.00216904
0.00217011
0.00212258
0.0021239
0.00212632
0.00213005
0.00214686
0.00202115
0.00197897
0.00198202
0.00198361
0.00198548
0.0019863
0.00205482
0.00205878
0.00206251
0.0020564
0.00209
0.00208946
0.00208725
0.00208549
0.00201854
0.00201771
0.00201754
0.00202077
0.00203695
0.00208724
0.00207046
0.00202785
0.00204613
0.00209883
0.00225092
0.00209105
0.00202247
0.0020457
0.00192068
0.00198917
0.00197205
0.00189395
0.00187286
0.00193479
0.00197663
0.00195596
0.00196788
0.00199273
0.00200533
0.00197785
0.00191883
0.00196569
0.00201086
0.00200206
0.00196798
0.0019718
0.00197022
0.00197199
0.00190336
0.00181524
0.00178766
0.00179572
0.0018318
0.00187635
0.00188854
0.0018304
0.00168805
0.00148212
0.00124398
0.00100918
0.000823047
0.000678647
0.000580024
0.000641503
0.000619385
0.000614352
0.000613407
0.000613019
0.000737557
0.000746937
0.000756728
0.000762487
0.000763803
0.000914788
0.000894501
0.000882071
0.000874093
0.000869539
0.000978668
0.000988774
0.00099899
0.00100052
0.000989099
0.00107031
0.00102298
0.00101766
0.00102287
0.00102819
0.00130433
0.00131413
0.00132333
0.00131952
0.00129741
0.00144848
0.00144136
0.00144008
0.00144289
0.00144506
0.00169375
0.00168992
0.00168555
0.00168494
0.00169743
0.001766
0.00178259
0.00178122
0.00177859
0.00177675
0.00186041
0.00186647
0.00187028
0.00186112
0.00182601
0.0019913
0.0019768
0.00198046
0.0019915
0.00200078
0.00225431
0.00224957
0.00224506
0.0022414
0.00223884
0.00225121
0.00227215
0.00227776
0.00227882
0.00227958
0.00226918
0.00226952
0.00226737
0.00225781
0.00224172
0.00240782
0.00240181
0.00240265
0.00241058
0.0024186
0.00253885
0.00253387
0.00252839
0.00252651
0.00252749
0.0024396
0.00244525
0.00244856
0.00244941
0.00244868
0.00249207
0.00249245
0.00249235
0.00249102
0.0024836
0.00238845
0.00236231
0.00235962
0.00236161
0.00236352
0.00250177
0.00250147
0.00250437
0.00251388
0.00252184
0.00238622
0.00238137
0.0023806
0.00237865
0.00237694
0.00229906
0.00229986
0.00229957
0.00229782
0.00230946
0.00220498
0.00219225
0.00219511
0.0021985
0.00220037
0.00215637
0.0021545
0.00215141
0.00214536
0.00213896
0.00196113
0.00196935
0.00198043
0.00198797
0.00199208
0.00206978
0.00206622
0.0020606
0.00204874
0.00201743
0.00215443
0.00214177
0.00213197
0.00212492
0.00212083
0.00201652
0.00202547
0.00203448
0.0020337
0.00196954
0.00196954
0.00197079
0.00197115
0.00197343
0.00197213
0.00196963
0.00196808
0.0019814
0.00198412
0.00197713
0.00196951
0.00217556
0.00217869
0.00218465
0.00218789
0.00216613
0.00194958
0.00198314
0.00203438
0.00198047
0.00192428
0.00201071
0.00200239
0.00191876
0.00188459
0.00200829
0.00201747
0.0020173
0.00201322
0.00201053
0.00189658
0.00189476
0.00189036
0.0018852
0.00199082
0.0019917
0.00198249
0.00197602
0.00183827
0.00183848
0.00183687
0.00182985
0.00182854
0.00209769
0.00202087
0.00200453
0.001994
0.00198805
0.00198904
0.00199079
0.00199437
0.00200447
0.00212969
0.00189856
0.00197878
0.0019586
0.00195614
0.00195558
0.00195351
0.00194581
0.00195348
0.00196206
0.0019604
0.00193691
0.00194708
0.00194652
0.00194599
0.00195787
0.00195926
0.00196024
0.00195903
0.00194517
0.00185072
0.00186636
0.00198517
0.00201054
0.00198222
0.00188354
0.00195954
0.00195835
0.00186769
0.00211768
0.00202718
0.00199739
0.00208332
0.00205094
0.00199191
0.00200108
0.00197044
0.00188251
0.00182619
0.00176364
0.00165936
0.00159216
0.0015339
0.00150326
0.00149317
0.00148122
0.00142726
0.00132166
0.00116701
0.00100161
0.000848496
0.000732829
0.000624117
0.000679894
0.00068498
0.000680518
0.000671607
0.000664249
0.000592493
0.000590341
0.000588892
0.000593635
0.000628676
0.000831001
0.000852196
0.00084861
0.000836634
0.000825245
0.000812573
0.000811164
0.000809374
0.000810086
0.000823672
0.00101643
0.000987135
0.000981344
0.000980974
0.00098143
0.00127295
0.00128151
0.00128935
0.00128605
0.00125597
0.00135592
0.00132088
0.00131987
0.00132871
0.00133696
0.00164
0.00163755
0.00163469
0.00163434
0.00164102
0.00163615
0.0016448
0.0016463
0.00164512
0.00164467
0.00168018
0.00168704
0.00169183
0.00168701
0.00166964
0.0019182
0.00189158
0.00188921
0.00189778
0.00190755
0.0021307
0.0021285
0.00212713
0.00213276
0.00215429
0.00203265
0.00203766
0.0020394
0.00203737
0.00203516
0.00201692
0.00202003
0.00202214
0.00202215
0.00203698
0.00228216
0.00226263
0.00225074
0.00225069
0.00225499
0.0023366
0.00233435
0.0023365
0.00235298
0.00238007
0.00247794
0.0024419
0.00242666
0.00242349
0.00242438
0.00221878
0.00222085
0.00222052
0.00221724
0.00222902
0.00223928
0.00222815
0.00223208
0.0022338
0.00223365
0.00220577
0.0022059
0.0022059
0.00220717
0.00222359
0.00217263
0.00216516
0.00216392
0.00216283
0.00216229
0.00214169
0.00214277
0.00214452
0.00214544
0.00214109
0.0020749
0.00207628
0.00207556
0.00207391
0.0020727
0.00198244
0.0019774
0.00196864
0.00195507
0.00193992
0.00189763
0.00188899
0.00189349
0.00189878
0.00190224
0.00204884
0.00205661
0.00206903
0.00208309
0.00208896
0.00193221
0.0019624
0.00195917
0.00195077
0.00194323
0.00192693
0.00192898
0.00192947
0.00192766
0.0019257
0.00201496
0.00199695
0.00199
0.00198474
0.00198167
0.00191901
0.00176812
0.00203863
0.00199852
0.00178007
0.00219063
0.00182176
0.00185304
0.00235052
0.00188176
0.00183681
0.00251692
0.00179795
0.00213704
0.0019431
0.00238296
0.00193259
0.00188449
0.00171424
0.00157349
0.00140078
0.00129237
0.0011989
0.00112609
0.0010512
0.000961639
0.000841381
0.000731349
0.000620253
0.000546072
0.000477659
0.000498375
0.000489451
0.000484203
0.000479069
0.000474969
0.000456091
0.000465138
0.000474303
0.000480847
0.000491168
0.000658971
0.000623592
0.00060824
0.000604342
0.000604375
0.000773138
0.000778096
0.000787072
0.000804518
0.000842838
0.000896757
0.000878022
0.00087318
0.000863989
0.000854423
0.00112094
0.00111871
0.00112164
0.00114281
0.00119621
0.0014327
0.00138639
0.00136806
0.00136164
0.00135942
0.00143561
0.00144365
0.00145098
0.00145482
0.00147852
0.00180183
0.00175754
0.0017399
0.00174005
0.00174488
0.00194591
0.00194645
0.00195135
0.00196789
0.00200706
0.00176385
0.00173503
0.00173065
0.00172981
0.00172917
0.00190323
0.00190421
0.00190651
0.00191057
0.0019254
0.0020271
0.00201544
0.00201018
0.00200664
0.00200446
0.00209269
0.00209768
0.00210509
0.00210899
0.00210026
0.00210574
0.00211018
0.00210534
0.00209727
0.00209125
0.00215206
0.00216029
0.00217197
0.00217971
0.00217091
0.00208979
0.00207981
0.00207722
0.0020764
0.00207629
0.00198316
0.00198304
0.00198242
0.00198298
0.00199224
0.00203682
0.0020494
0.00205337
0.00205585
0.00205782
0.00203076
0.00203192
0.00203408
0.002034
0.00201615
0.00190806
0.00188847
0.00188719
0.00189067
0.00189344
0.00207283
0.00208385
0.00210034
0.00211201
0.00208608
0.00188231
0.00182016
0.0018176
0.00182621
0.00183269
0.00188695
0.00188529
0.00188217
0.00188262
0.00190988
0.00185153
0.00181594
0.00180966
0.00180818
0.00180654
0.00193196
0.00194069
0.00195326
0.00196544
0.00196924
0.00182906
0.00187782
0.00187124
0.00185812
0.00184755
0.00190219
0.00191231
0.00192873
0.00194017
0.00188591
0.00180713
0.00180336
0.00180621
0.00180628
0.0018049
0.00198117
0.00198817
0.00199506
0.00199525
0.00197686
0.00197736
0.0018877
0.00181934
0.00198857
0.00198905
0.00182856
0.00185147
0.00185179
0.0018472
0.0018424
0.00195602
0.00196176
0.00196741
0.00197333
0.00199244
0.00186571
0.0018182
0.00195892
0.0019356
0.00179315
0.00186509
0.0019524
0.00194525
0.00180462
0.00179471
0.00194089
0.00198204
0.00196085
0.0022195
0.00207932
0.00206003
0.0021634
0.00214222
0.00204591
0.00196537
0.00189188
0.0019185
0.00198618
0.00198274
0.00194448
0.0019567
0.00199738
0.00198094
0.00192071
0.00195146
0.00198512
0.00201356
0.00203074
0.00206867
0.00202094
0.00203859
0.0020826
0.00198123
0.00201266
0.00199673
0.0019779
0.0019955
0.00199598
0.00200109
0.00200871
0.00200402
0.00197426
0.00191913
0.0018455
0.00164317
0.00184079
0.0018597
0.00167896
0.00170402
0.00187417
0.00190065
0.001936
0.00182916
0.00185296
0.00187564
0.00175828
0.00171388
0.00185813
0.00186949
0.00186601
0.00192894
0.00191428
0.00191637
0.0019136
0.00203943
0.00196563
0.00195157
0.00204679
0.00236792
0.00205132
0.00195278
0.0020376
0.00206105
0.00203253
0.00182898
0.00147072
0.00104066
0.000694763
0.000631015
0.000741952
0.00114777
0.00141876
0.00182176
0.00205795
0.00210035
0.00211997
0.00213341
0.00246261
0.00247802
0.00249363
0.00249264
0.00240288
0.00175678
0.00188901
0.00190785
0.00190656
0.00190007
0.00256112
0.00258509
0.00261365
0.00261618
0.00251436
0.00181707
0.00184225
0.00184719
0.00184948
0.00184822
0.0026289
0.00265549
0.00269221
0.00271653
0.0026225
0.00256461
0.0027712
0.00279783
0.00278873
0.00277663
0.00196364
0.0019666
0.00196387
0.00194459
0.0018407
0.00147435
0.00162173
0.00163153
0.00163126
0.00163034
0.00214795
0.00215964
0.00217238
0.00217864
0.00218237
0.00156867
0.00156958
0.0015736
0.0015758
0.00157297
0.00148091
0.00148215
0.00148356
0.00148598
0.00146232
0.00209045
0.00201035
0.00198179
0.00196433
0.00195199
0.00186811
0.00188442
0.00191099
0.00194654
0.00195627
0.00193947
0.00184177
0.00181592
0.00180472
0.00179793
0.00177359
0.00178348
0.00180165
0.00183203
0.00188418
0.00174417
0.00165671
0.00164356
0.00164772
0.00165264
0.00146927
0.00141948
0.00141311
0.00141317
0.00141136
0.0015418
0.00154063
0.00153762
0.00153993
0.00157872
0.00188044
0.00184809
0.00182437
0.0018105
0.0018037
0.00175304
0.00175356
0.00175807
0.00178144
0.00188383
0.00176045
0.00175374
0.00175566
0.00175693
0.001757
0.00176376
0.00176161
0.00175725
0.00175334
0.00176394
0.00180478
0.0017167
0.00167177
0.00151669
0.00146361
0.00145026
0.00145464
0.00145897
0.00146086
0.00175506
0.00175874
0.00176668
0.0017851
0.00180881
0.00182323
0.00179205
0.00177342
0.00176606
0.0017632
0.00148733
0.00148718
0.00148522
0.00147877
0.00146648
0.00145344
0.00144728
0.00143726
0.0014311
0.00142749
0.00129911
0.00130298
0.00131176
0.00132775
0.00133058
0.00117808
0.00118675
0.00117853
0.00117423
0.00117321
0.00093656
0.0009378
0.000935944
0.000926738
0.000905489
0.000871099
0.000888726
0.000895416
0.000895964
0.000893584
0.000767978
0.000769963
0.000774601
0.000783236
0.000787
0.000746333
0.000738122
0.000731354
0.000727686
0.000725823
0.000698391
0.00070427
0.000713105
0.000724677
0.000740097
0.000616543
0.000619455
0.000618091
0.000613239
0.000607887
0.000529321
0.000530028
0.000531509
0.000535226
0.000543209
0.000559642
0.000539653
0.000533351
0.000530594
0.000529049
0.000548835
0.000549989
0.000553402
0.000561879
0.000583573
0.000692049
0.000705633
0.000702286
0.000692842
0.000684174
0.000642644
0.000643721
0.000645217
0.000649603
0.000668977
0.000798343
0.000768334
0.00076314
0.00076401
0.000764858
0.000763915
0.000655958
0.000694173
0.000664521
0.000654643
0.000651165
0.00064992
0.000640564
0.000586062
0.000608598
0.000625814
0.000626527
0.000621582
0.000616669
0.00052634
0.000524881
0.000523798
0.000527657
0.000557247
0.000569957
0.000537569
0.000531004
0.000529837
0.000529667
0.000549657
0.000548706
0.000548103
0.000550778
0.000571381
0.000497445
0.000480719
0.000478826
0.000481216
0.000483178
0.000530581
0.000531187
0.000533573
0.000542075
0.000566689
0.000673595
0.00067586
0.000670007
0.000658201
0.000647498
0.000716017
0.00071187
0.000709136
0.000716249
0.000752404
0.000949165
0.000917565
0.000905015
0.000900151
0.000898143
0.00107963
0.00108958
0.00109861