/*--------------------------------*- C++ -*----------------------------------*\
  =========                 |
  \\      /  F ield         | OpenFOAM: The Open Source CFD Toolbox
   \\    /   O peration     | Website:  https://openfoam.org
    \\  /    A nd           | Version:  7
     \\/     M anipulation  |
\*---------------------------------------------------------------------------*/
FoamFile
{
    version     2.0;
    format      ascii;
    class       volVectorField;
    location    "2.5";
    object      wallShearStress;
}
// * * * * * * * * * * * * * * * * * * * * * * * * * * * * * * * * * * * * * //

dimensions      [0 2 -2 0 0 0 0];

internalField   uniform (0 0 0);

boundaryField
{
    outlet1
    {
        type            calculated;
        value           uniform (0 0 0);
    }
    Wall
    {
        type            calculated;
        value           nonuniform List<vector> 
40276
(
(0.000221941 5.51316e-05 0.000212086)
(-0.00018486 -5.46545e-06 0.000415215)
(-0.000188097 -5.08244e-06 0.000406454)
(0.000208051 -0.000218597 0.000160414)
(0.000156739 -0.000157011 0.000138455)
(0.000105221 -0.000114517 0.000134921)
(8.36874e-05 -7.21187e-05 0.000134837)
(9.37902e-05 -5.08577e-05 0.00014788)
(7.68638e-05 -3.059e-05 0.000142538)
(7.84409e-05 -4.4139e-05 0.000148892)
(0.000490492 4.77191e-05 0.000501154)
(0.000584979 1.98473e-05 0.000547164)
(0.000590251 2.56379e-05 0.000946682)
(0.000568064 3.11895e-05 0.000877838)
(0.000255032 1.80786e-05 0.000245432)
(0.000239193 3.44976e-05 0.000282055)
(0.000264974 5.50137e-05 0.000191492)
(0.00027116 4.3094e-05 0.000132373)
(1.08009e-05 -0.000159253 2.59289e-05)
(2.24354e-05 -0.00019651 4.55902e-05)
(-0.000104559 2.71687e-05 0.000202868)
(-0.000132349 3.13192e-05 0.000191827)
(-0.000100637 2.75439e-05 6.59284e-05)
(-0.000117543 2.55603e-05 6.25164e-05)
(-8.86125e-05 2.11222e-05 4.23363e-05)
(-0.000100169 2.21571e-05 3.69068e-05)
(-8.01241e-05 3.29692e-05 5.98832e-06)
(-8.12034e-05 3.27003e-05 4.4142e-06)
(-0.000195593 6.23584e-05 4.92656e-05)
(-0.000160154 4.85407e-05 3.86184e-05)
(-0.000191625 6.30406e-05 0.00013108)
(-0.000226271 7.90901e-05 0.000141837)
(-5.27056e-05 -3.08267e-06 0.000160078)
(-4.69407e-05 -4.77521e-06 0.000148805)
(-3.9735e-05 9.10972e-06 5.12952e-06)
(-3.96534e-05 1.00791e-05 4.99637e-06)
(0.000587867 4.73814e-05 0.000104498)
(0.000628431 1.81933e-05 9.17549e-05)
(0.00119295 0.000277462 0.000207636)
(0.00139981 0.000382589 0.000227446)
(0.000988226 3.6033e-05 1.40647e-05)
(0.000908618 2.7454e-06 3.67734e-05)
(1.93051e-05 -1.81268e-05 -0.000498083)
(4.15526e-05 -1.65637e-05 -0.000483251)
(2.02902e-05 8.11195e-07 -0.000479853)
(1.07512e-05 -9.29654e-06 -0.000430698)
(-2.43032e-05 2.83126e-06 -0.000437887)
(-1.62374e-05 -4.74336e-06 -0.000379817)
(-4.15473e-05 -6.29401e-07 -0.000349423)
(-5.19005e-05 2.63182e-06 -0.000311809)
(-4.73515e-05 -3.76673e-06 -0.000279116)
(-6.66187e-05 3.5151e-06 -0.000288823)
(-6.6314e-05 -1.68701e-06 -0.000251672)
(-7.31484e-05 5.36824e-06 -0.000251801)
(0.000491178 7.14651e-05 0.000206795)
(0.000484742 8.41303e-05 0.000165051)
(-0.000103718 4.50354e-05 0.000235215)
(6.24185e-05 2.17517e-05 0.000185936)
(-0.000107011 4.21124e-05 0.0002394)
(-0.000495999 2.88914e-05 -0.000472788)
(-0.000526544 1.61619e-05 -0.00048551)
(1.85694e-05 3.38505e-05 0.000284308)
(-1.25275e-05 -1.14855e-05 0.000220216)
(2.06868e-05 -5.94182e-07 1.44843e-05)
(1.97169e-05 -4.78229e-07 1.5316e-05)
(1.92888e-05 -1.93404e-07 1.42565e-05)
(1.75862e-05 -3.20292e-07 1.31383e-05)
(2.06177e-05 -4.23265e-07 1.47569e-05)
(-0.000102432 4.23779e-07 -9.41328e-05)
(-0.000112332 1.22316e-05 -0.000101626)
(-7.97785e-05 8.59405e-06 -0.000227804)
(-7.34364e-05 -1.56512e-06 -0.000233392)
(-5.63351e-05 4.19877e-06 -5.56667e-05)
(-5.6724e-05 4.24968e-06 -5.31972e-05)
(-4.9747e-05 3.80183e-06 -4.87318e-05)
(-4.94525e-05 5.35301e-06 -4.73913e-05)
(-5.54047e-05 2.61391e-06 -5.07276e-05)
(1.97922e-05 -1.0592e-06 -8.93242e-06)
(1.71492e-05 -1.22044e-06 -1.27637e-05)
(4.47045e-06 2.92673e-06 -4.80414e-07)
(5.47884e-06 3.2599e-07 -3.16883e-07)
(9.15542e-06 5.78875e-08 -6.20229e-07)
(2.26651e-05 -1.10365e-05 1.56168e-05)
(2.124e-05 -1.20082e-05 1.57794e-05)
(1.64011e-05 -2.70656e-05 1.06215e-05)
(1.69947e-05 -1.01367e-07 1.40511e-05)
(1.55916e-05 -2.30759e-07 1.27973e-05)
(1.45969e-05 -2.62028e-07 1.37189e-05)
(1.4276e-05 -2.80214e-05 9.69041e-06)
(3.18201e-06 -3.36913e-05 3.92938e-06)
(1.65603e-06 -3.27726e-05 3.30067e-06)
(-2.80934e-05 -8.83123e-07 -2.56475e-05)
(1.36515e-05 -1.06175e-07 1.25437e-05)
(1.21525e-05 -2.95949e-07 1.33414e-05)
(1.16189e-05 -1.11863e-07 1.23289e-05)
(9.30018e-06 -1.04403e-09 1.17765e-05)
(7.05259e-06 -6.70588e-08 1.12391e-05)
(4.97583e-06 -1.16741e-07 1.08372e-05)
(9.78125e-07 1.95485e-07 8.5693e-06)
(-7.02552e-07 9.70055e-08 7.94887e-06)
(-2.27067e-06 -3.53618e-08 7.35199e-06)
(-6.92548e-06 2.37552e-07 3.26533e-06)
(-7.72865e-06 9.84302e-08 2.34371e-06)
(-3.12252e-05 3.06837e-06 -2.7596e-05)
(-8.44246e-06 4.57152e-08 1.3466e-06)
(-3.80937e-06 -6.54423e-06 -4.63944e-06)
(-2.7531e-06 -7.66874e-06 -3.2544e-06)
(-8.80515e-06 -9.97438e-08 3.19731e-07)
(-9.06193e-06 -1.75783e-07 -8.36415e-07)
(-8.18765e-06 1.98257e-07 -1.46146e-06)
(-9.04652e-06 -2.64906e-07 -2.10074e-06)
(-8.00734e-06 1.07404e-07 -2.79277e-06)
(-8.54666e-06 -3.98112e-07 -3.44743e-06)
(-7.67776e-06 -3.33667e-08 -4.14276e-06)
(-7.53891e-06 -5.0306e-07 -4.47905e-06)
(-6.69495e-06 -1.57978e-06 -2.11919e-05)
(-6.69167e-06 -2.13717e-06 -2.23695e-05)
(-6.93774e-06 -2.40278e-06 -2.07863e-05)
(-0.000245532 -6.09725e-05 0.000472493)
(-0.000245953 -5.89106e-05 0.000428467)
(-9.81229e-06 -2.31834e-06 1.2932e-05)
(-1.8752e-05 -2.94907e-06 1.87699e-05)
(-7.99798e-06 -2.24878e-06 1.9413e-05)
(-2.29931e-06 -2.13385e-06 1.45509e-05)
(-2.43765e-06 -2.14178e-05 -3.36309e-06)
(-6.18085e-07 -1.76987e-05 -1.43703e-06)
(-0.000128213 3.19081e-05 0.000185068)
(-0.000110849 4.16958e-05 0.000156773)
(-0.000160298 -1.18089e-05 0.000274518)
(-0.00014023 -1.76914e-05 0.000236611)
(-0.000105411 -2.0027e-06 0.000177)
(-9.22164e-05 -5.12697e-06 0.00015235)
(-0.000163275 8.59122e-05 0.000489246)
(-0.000228144 0.000150663 0.000689718)
(1.65863e-05 -1.50313e-05 0.000188434)
(9.20756e-06 -8.34707e-06 0.000158321)
(-9.80396e-05 2.62902e-05 0.000193335)
(-5.19402e-05 2.546e-07 0.00016839)
(-0.000190864 -3.89325e-05 0.00051042)
(-0.000192777 -2.04837e-05 0.000508446)
(-0.000191213 -3.27093e-05 0.000537172)
(-0.00021 -8.6325e-06 0.000540636)
(-0.000558991 6.03212e-06 -0.000150921)
(-0.000640507 6.19047e-06 -0.000182926)
(-2.27658e-05 -7.96754e-05 9.96199e-06)
(-2.65602e-05 -7.8939e-05 1.19286e-05)
(-2.16305e-05 -4.38332e-05 6.54206e-05)
(-2.5374e-05 -5.36112e-05 8.17468e-05)
(-2.9151e-05 -5.25095e-05 6.60304e-05)
(-2.33323e-05 -4.0422e-05 5.36999e-05)
(-1.54753e-05 -8.61506e-05 8.48818e-06)
(-1.99023e-05 -9.83585e-05 6.53342e-06)
(-2.35251e-05 -8.34861e-05 8.82117e-06)
(-2.19087e-05 -8.64943e-05 9.21438e-06)
(-2.31364e-05 -0.000128638 -1.56102e-05)
(-1.99749e-05 -0.000111411 -1.41257e-05)
(-7.64566e-06 -5.66216e-05 -3.31677e-06)
(-9.88148e-06 -5.05368e-05 -4.75775e-06)
(-6.08805e-05 -3.07815e-05 9.43987e-05)
(-5.56678e-05 -3.26034e-05 8.91958e-05)
(7.40616e-05 4.84943e-06 -0.000243377)
(7.4254e-05 -3.19097e-06 -0.000229567)
(-0.000136836 -5.74201e-05 -1.24031e-05)
(-0.000135854 -6.42081e-05 -1.45783e-05)
(-0.000320256 -5.01766e-05 0.000127773)
(-0.000342473 -5.47823e-05 0.000116951)
(-0.000287439 -6.96935e-05 -2.57073e-05)
(-0.000280517 -5.76984e-05 -3.46832e-05)
(-0.000161736 0.000188096 0.000220055)
(-0.000154859 0.000235189 0.000203096)
(-0.00024416 -4.48112e-05 1.29217e-05)
(-0.000128431 -4.60109e-05 -1.81084e-05)
(-0.000204208 -7.86873e-05 7.38887e-05)
(-0.000176181 -7.71716e-05 6.25677e-05)
(-0.00022335 -5.23803e-05 5.77511e-05)
(-6.61516e-05 -4.14152e-05 -6.97167e-06)
(-3.91559e-05 -2.08994e-05 6.05843e-05)
(-3.22687e-05 -1.93762e-05 5.59355e-05)
(0.000749643 -0.000331696 0.000481821)
(0.00065342 -0.000273205 0.00038227)
(0.000688941 -0.000427972 0.000234352)
(0.000588462 -0.00029048 0.000255622)
(0.000617653 -0.000364256 0.000223177)
(0.000409669 -0.000361488 0.000175871)
(0.00051862 -0.000401407 0.000215188)
(0.000410917 -0.000342103 0.000172456)
(0.000615716 -0.000328984 0.000402549)
(0.000666806 -0.000404278 0.000395822)
(0.000630643 -0.000372111 0.000318294)
(0.000544359 -0.000430336 0.000179768)
(0.000639429 -0.000448969 0.000172538)
(0.000533083 -0.000374332 0.000211014)
(0.000273931 -0.000259846 0.000154529)
(0.000396056 -0.00036652 0.000176728)
(0.000316957 -0.00028383 0.000172447)
(0.000263241 -0.000260842 0.00016634)
(0.000118635 -0.000112571 0.000140205)
(8.85516e-05 3.35819e-05 0.000185293)
(0.0001186 4.26022e-05 0.000192249)
(0.00012177 4.31409e-05 0.00018481)
(0.000122664 3.91007e-05 0.000153452)
(0.000166265 4.50338e-05 0.000164494)
(0.000114309 4.23931e-05 0.000184154)
(0.000113107 4.22884e-05 0.000178025)
(0.000125448 -8.88464e-07 0.000241989)
(0.000128003 5.79407e-06 0.00025605)
(9.53092e-05 -9.65404e-06 0.000164407)
(0.000112235 -2.11622e-05 0.000200559)
(9.42115e-05 -3.12551e-05 0.000166536)
(8.15971e-05 -2.25887e-05 0.000149335)
(0.000110058 -1.73391e-05 0.000208067)
(0.000106707 -3.71633e-06 0.000217684)
(8.41919e-05 -1.70226e-05 0.000189555)
(7.78057e-05 -2.60676e-05 0.000167555)
(7.37952e-05 -1.33802e-05 0.000142521)
(6.89072e-05 -1.07645e-05 0.000128055)
(5.97981e-05 -2.49604e-05 0.000115652)
(8.46764e-05 -1.0217e-05 0.000161942)
(5.03915e-05 -1.82146e-05 0.000115466)
(3.93564e-05 -2.48313e-05 9.91977e-05)
(9.22535e-05 -8.96328e-06 0.000280738)
(7.80661e-05 -8.28929e-06 0.000259312)
(6.20769e-05 -6.14396e-06 0.000241892)
(4.09478e-05 -1.75273e-06 0.000221571)
(0.000101166 -1.52588e-05 0.000269971)
(5.80972e-05 -3.11548e-05 0.000232483)
(3.34676e-05 -2.19023e-05 0.000186599)
(1.271e-05 -1.95257e-05 0.000157848)
(1.4691e-05 -3.381e-05 0.000158752)
(5.27662e-05 1.151e-05 0.000165652)
(1.23694e-05 -1.01139e-05 0.000142331)
(7.24212e-05 2.54604e-05 0.000151575)
(7.84321e-05 2.84712e-05 0.000143081)
(3.37438e-05 7.33817e-06 0.000117188)
(4.64331e-05 1.66123e-05 0.000121775)
(7.25998e-05 -2.19083e-05 0.000184654)
(5.74361e-05 -1.96166e-05 0.000166191)
(4.47381e-05 -3.44961e-05 0.00015685)
(-1.79036e-06 -5.10771e-05 0.000150945)
(3.068e-05 -2.99177e-05 0.000111392)
(-9.02719e-06 -4.21456e-05 8.37828e-05)
(-9.58046e-06 -3.45059e-05 0.000107645)
(-6.62864e-06 -2.13e-05 9.9343e-05)
(-3.52569e-05 -4.50436e-05 5.65214e-05)
(-3.49782e-05 -3.12505e-05 3.80535e-05)
(-3.86372e-05 -3.55474e-05 1.80189e-05)
(-3.94461e-05 -2.92552e-05 2.96758e-05)
(-3.96722e-06 -8.98297e-06 6.01757e-05)
(1.56397e-05 3.49882e-06 7.31374e-05)
(1.06316e-05 -2.63691e-06 5.41486e-05)
(0.000297428 1.68055e-05 0.000518453)
(0.000338179 4.52102e-05 0.000613301)
(0.000297359 -1.00446e-05 0.000527737)
(0.000300413 2.03197e-05 0.000528167)
(0.000449337 0.000127411 0.000492895)
(0.000497844 0.00013804 0.000601902)
(0.000357939 0.000125342 0.000501082)
(0.000397472 0.000119848 0.000581781)
(0.000334754 0.000115669 0.000521519)
(0.00032318 9.9393e-05 0.00054773)
(0.00046081 0.000181047 0.000616037)
(0.000386688 0.000155279 0.000460132)
(0.000453094 0.000167647 0.000586459)
(0.000287034 0.000108168 0.000480131)
(0.000389455 0.000141099 0.000603399)
(0.000505406 0.000163349 0.000475299)
(0.000422811 0.000157102 0.000531323)
(0.000427003 0.000158766 0.0005442)
(0.000459981 0.000147274 0.000649159)
(0.000490768 0.000192929 0.000589156)
(0.000533889 0.000208893 0.000571382)
(0.000496492 0.000201477 0.000521944)
(0.000491284 0.00016941 0.000632487)
(0.000479888 0.000172487 0.000643434)
(0.000521612 9.60055e-05 0.000593763)
(0.000657726 0.000101657 0.000629761)
(0.000507219 0.000120722 0.000604127)
(0.000376983 0.000117739 0.000449754)
(0.000478338 0.00011443 0.000566535)
(0.000511138 8.75603e-05 0.000494577)
(0.000376767 6.72845e-05 0.00035878)
(0.000400407 0.000120152 0.000420329)
(0.000450011 0.000102785 0.000419424)
(0.000433782 0.000109867 0.000394269)
(0.000623929 -4.65475e-05 0.00055198)
(0.000646817 -7.17106e-05 0.000543397)
(0.000681668 -0.000200073 0.000492729)
(0.000505801 -8.37633e-05 0.000432284)
(0.000607614 -0.000167668 0.000354465)
(0.000469543 -1.7586e-05 0.000388098)
(0.000653 -0.000185574 0.000363158)
(0.000413654 -4.00687e-05 0.000298311)
(0.000548944 -0.000140892 0.000259696)
(0.000696001 -0.000305495 0.000249188)
(0.000395595 6.32345e-05 0.000386865)
(0.000398669 9.43741e-05 0.000389644)
(0.00043051 1.51565e-05 0.000297188)
(0.000420749 6.21507e-05 0.000305445)
(0.000485114 0.000175839 0.000445135)
(0.000489639 0.000171051 0.000573924)
(0.000503867 0.000174542 0.000526509)
(0.000524065 0.00015176 0.000420846)
(0.000584528 0.000193268 0.000457575)
(0.000560217 0.000216953 0.000580167)
(0.000478629 0.000167792 0.000571184)
(0.000518432 0.00017174 0.000609458)
(0.000530948 0.000199191 0.000413578)
(0.000507818 0.000181928 0.000570619)
(0.000510592 0.000186759 0.000581876)
(0.000608537 0.000223444 0.000692531)
(0.000600089 0.000219849 0.000544348)
(0.000458752 0.000130863 0.000380437)
(0.000647805 0.000203405 0.000423525)
(0.000505556 0.000109917 0.000366017)
(0.000655854 0.000162821 0.000365138)
(0.000573806 0.000204195 0.000430582)
(0.000580766 0.000186033 0.000509775)
(0.000773781 0.000299682 0.000525675)
(0.000611996 0.000210538 0.000393928)
(0.000586665 0.00017834 0.000418397)
(0.000823415 0.000298261 0.000445903)
(0.000608013 0.000271176 0.000482771)
(0.000648126 0.000230116 0.000613019)
(0.000601732 0.000200474 0.000653749)
(0.000712188 0.000255499 0.000599114)
(0.000722785 0.00026481 0.000572948)
(0.000373286 0.000137577 0.000515855)
(0.000374947 0.000135578 0.000523436)
(0.00025429 6.61353e-05 0.000487476)
(0.000377384 0.000134848 0.000569163)
(0.000456005 0.000119052 0.000705285)
(0.000422754 0.000111614 0.000660011)
(0.000389148 0.000132236 0.000532492)
(0.000415133 0.000145178 0.000564755)
(0.000401608 0.000140822 0.000615482)
(0.000371424 4.75619e-05 0.000680096)
(0.000320707 2.29376e-05 0.000619089)
(0.000382837 9.34048e-05 0.000662471)
(0.000351973 7.99557e-05 0.000616538)
(0.000314807 1.9036e-05 0.000532472)
(0.000433071 0.00015344 0.000575036)
(0.000461387 0.000122745 0.000664403)
(0.000403293 0.000101839 0.000628274)
(0.000390193 -3.01794e-05 0.000660221)
(0.000493331 0.00013158 0.000769091)
(0.00037069 4.22194e-05 0.000668937)
(0.000479206 0.000180775 0.000572481)
(0.000531155 0.000196933 0.000626568)
(0.000476673 0.000137393 0.000698237)
(0.000441962 0.000157321 0.000597206)
(0.000517593 0.000192393 0.000613426)
(0.000523253 0.000112002 0.000755229)
(0.000523608 0.000124706 0.000822336)
(0.000415017 1.89809e-05 0.000725854)
(0.000375984 1.91113e-05 0.000632802)
(0.000408416 4.58484e-05 0.000680798)
(0.000469263 0.000107209 0.000714971)
(0.000395508 4.682e-05 0.000635605)
(0.000519282 0.000198169 0.000641996)
(0.000526989 8.43618e-05 0.000795967)
(0.000602237 0.000169509 0.000884045)
(0.00027606 -5.23358e-06 0.000487123)
(0.000291361 3.48652e-05 0.000510708)
(0.00034925 0.00011803 0.000550356)
(0.000367593 6.97772e-05 0.00062276)
(0.000339284 9.7693e-06 0.000564618)
(0.00043841 7.39639e-05 0.00070392)
(0.000328684 -3.09607e-05 0.000556449)
(0.000335515 1.36187e-05 0.000563293)
(0.000423101 0.000125246 0.000666975)
(0.000343096 3.40215e-05 0.000581252)
(0.000292737 2.36767e-05 0.000489931)
(0.000356631 -1.07853e-05 0.000585285)
(0.000302681 2.88618e-05 0.000504939)
(0.000342349 3.28306e-05 0.000561729)
(0.000413846 2.15502e-05 0.000674981)
(0.000318457 7.74072e-05 0.000544906)
(0.000314588 4.21092e-05 0.000524093)
(0.000400731 -7.14999e-05 0.000609702)
(0.000481949 0.000106773 0.00076696)
(0.000413072 -4.88654e-05 0.000706987)
(0.000525581 4.58912e-05 0.000861555)
(0.000400603 -1.41935e-05 0.000677924)
(0.000421788 -2.69148e-07 0.000709381)
(0.000536952 0.000139579 0.000787959)
(0.000425667 3.12706e-05 0.000682507)
(0.000485169 9.91296e-06 0.000776909)
(0.000516394 2.73741e-05 0.00084445)
(0.00051574 5.30282e-06 0.000823103)
(0.000417091 1.94238e-05 0.000665516)
(0.000468523 2.1922e-05 0.000743249)
(0.000414995 9.45892e-06 0.000654888)
(0.000469893 3.41841e-05 0.000740281)
(0.000567131 0.000172502 0.000737346)
(0.000567382 0.000200735 0.000665971)
(-2.1072e-05 -4.92274e-05 0.0001608)
(0.000577334 0.000141045 0.000820529)
(0.000503653 0.000128252 0.000713464)
(0.000658188 0.000246984 0.000701576)
(0.000592176 0.000226159 0.000628565)
(0.000636842 0.000222133 0.000716547)
(-2.53441e-05 -4.88899e-05 0.000160248)
(0.000570973 0.000175733 0.00076397)
(0.000570235 0.000199451 0.000685851)
(0.000624184 0.000224366 0.000727017)
(0.000574305 0.000161282 0.000813907)
(0.000635203 0.000160403 0.000951428)
(-2.29711e-05 -4.86648e-05 0.000157459)
(0.00047194 4.7282e-05 0.000771644)
(0.000436634 3.80448e-05 0.000732842)
(0.000467355 6.32756e-05 0.000740579)
(0.000538497 3.83232e-05 0.000828784)
(0.000466272 8.64737e-05 0.000729521)
(-2.54496e-05 -3.81391e-05 0.000160484)
(0.000583928 0.000222506 0.000699659)
(0.000611902 0.000108181 0.000880527)
(0.0006964 0.000204462 0.000962929)
(0.000675755 0.000226608 0.000796964)
(0.00076257 0.000277023 0.000669157)
(0.000837209 0.000325101 0.000646109)
(0.00065792 0.00018917 0.000859988)
(0.000622767 0.000181018 0.000771728)
(0.000660836 0.000278888 0.000625211)
(0.000697277 0.000256772 0.000685106)
(0.000677043 0.000222547 0.000780379)
(0.000724782 0.000250083 0.000825018)
(0.000773492 0.000302206 0.000805921)
(0.000685201 0.000216141 0.000867007)
(0.000696792 0.000163663 0.000970362)
(0.0005699 0.000129595 0.000813011)
(0.000640809 0.000129858 0.00100479)
(0.000515324 8.24022e-05 0.000786033)
(0.000604942 7.46432e-05 0.0009221)
(0.000750304 0.000248463 0.000950551)
(0.00062403 0.000195215 0.000800992)
(0.000673609 0.000177873 0.000958775)
(0.000556181 8.87946e-05 0.000899178)
(0.000570276 0.000139301 0.00082442)
(0.00075942 0.000131455 0.00106899)
(0.000654687 0.000127317 0.00102481)
(0.00060188 4.56806e-05 0.000969358)
(0.000590819 1.5508e-05 0.000937907)
(0.000482706 9.33104e-06 0.000807824)
(0.000470587 3.49038e-05 0.000759858)
(0.000616779 0.000105434 0.000899034)
(0.000633246 0.000118197 0.000989548)
(0.000588954 1.14313e-05 0.000925612)
(0.000607525 3.41491e-05 0.000953927)
(0.000608943 -3.44726e-05 0.000944651)
(0.00058247 4.32398e-05 0.000891332)
(0.000689012 0.000127008 0.00100444)
(-3.14434e-05 -4.32518e-05 0.000168906)
(0.00051559 -9.59118e-06 0.000842607)
(0.000466929 3.69652e-05 0.000743574)
(0.000675564 0.000157274 0.000994704)
(0.000711299 0.000202077 0.00106247)
(0.000587129 -4.86019e-07 0.000979937)
(0.000743508 7.40327e-05 0.0011709)
(0.00054395 4.69756e-05 0.000851963)
(0.000667588 3.40523e-05 0.0010245)
(0.000534839 8.05861e-05 0.000846687)
(0.000512467 5.44742e-06 0.000784361)
(0.000647521 -7.67038e-05 0.00096166)
(0.000726825 4.99453e-05 0.00114885)
(0.000722794 3.41772e-05 0.00113551)
(0.000302383 -4.52668e-05 0.000433565)
(0.000226644 1.71422e-05 0.000349267)
(0.000241036 1.50585e-05 0.000350765)
(0.000226676 7.44551e-06 0.000345202)
(0.000167731 3.01089e-05 0.000297639)
(0.000205276 3.27545e-05 0.000333254)
(0.00025388 1.52669e-05 0.000346836)
(0.000198186 4.51908e-05 0.000330222)
(0.000306231 3.39991e-05 0.000539887)
(0.000298182 4.69042e-05 0.000499638)
(-2.31793e-05 -4.18817e-05 0.000153985)
(-2.68594e-05 -4.39143e-05 0.000160906)
(-2.48479e-05 -4.05675e-05 0.000149012)
(-2.63351e-05 -3.68728e-05 0.000149879)
(0.000315285 3.82481e-05 0.000503914)
(0.00027822 7.03006e-05 0.000453768)
(0.000314549 2.61436e-05 0.00044013)
(0.000266756 4.52118e-05 0.000389913)
(0.000311467 1.58991e-05 0.000430916)
(0.000292975 3.96395e-05 0.000410341)
(-2.97925e-05 -3.6267e-05 0.000155309)
(0.000308142 1.69558e-05 0.000415992)
(-3.5132e-05 -2.89175e-05 0.000165412)
(-3.0204e-05 -3.46345e-05 0.000156365)
(0.000225081 4.50802e-05 0.000236625)
(0.000200082 4.34139e-05 0.000223217)
(0.000201483 3.32587e-05 0.000230761)
(-3.35528e-05 -3.44715e-05 0.000154385)
(-2.66113e-05 -3.8415e-05 0.000165218)
(-2.59971e-05 -4.19579e-05 0.000161726)
(-3.242e-05 -3.38067e-05 0.00017565)
(-3.39767e-05 -4.2395e-05 0.000183325)
(-2.98014e-05 -3.03363e-05 0.000167235)
(-2.86472e-05 -2.62467e-05 0.000159974)
(-3.4766e-05 -3.4534e-05 0.000159534)
(0.000169977 5.09617e-05 0.000164702)
(0.000212982 5.316e-05 0.000190407)
(0.000175976 4.24712e-05 0.000166212)
(0.000152717 4.71553e-05 0.00016922)
(0.000186176 4.97477e-05 0.000184979)
(0.000224129 4.00841e-05 0.00020134)
(0.000226356 4.48883e-05 0.00023352)
(0.000266903 3.29533e-05 0.00024903)
(0.000254512 4.08037e-05 0.000226886)
(0.000223033 4.74829e-05 0.0002395)
(0.000224789 5.32091e-05 0.000195951)
(0.000242482 4.32009e-05 0.000210056)
(0.000240752 3.00877e-05 0.000284861)
(0.000223262 3.53509e-05 0.000291091)
(0.000267935 2.20572e-05 0.000329937)
(0.000217444 3.19346e-05 0.000305376)
(0.000239528 1.74025e-05 0.000308762)
(0.000201744 3.38315e-05 0.000294109)
(0.00028419 5.12649e-05 0.000352099)
(0.000295111 2.65547e-05 0.00031356)
(0.000267085 3.22165e-05 0.000291259)
(0.000233599 3.20347e-05 0.000278954)
(0.000281721 2.34764e-05 0.000376516)
(0.000275823 2.47877e-05 0.000327068)
(0.000301051 4.34037e-05 0.0004005)
(0.000274051 5.15446e-05 0.000301499)
(0.000309566 2.45212e-05 0.000342107)
(0.0002947 2.01993e-05 0.000287057)
(0.000315837 2.74543e-05 0.000332605)
(0.000304739 3.60443e-05 0.000324946)
(0.0002975 4.26775e-05 0.000383854)
(0.000325214 1.904e-05 0.000414067)
(0.000336595 9.51472e-07 0.000393613)
(0.000346572 3.56259e-05 0.000448662)
(0.000378643 3.51977e-05 0.000450826)
(0.000370177 5.23713e-06 0.000387608)
(0.000350034 1.81929e-06 0.000311127)
(0.000361862 2.2866e-05 0.00037699)
(0.000298096 2.96748e-05 0.000274045)
(0.000280103 2.34522e-05 0.000228308)
(0.000311682 3.33188e-05 0.000270096)
(0.000127932 4.20014e-05 0.000138462)
(0.00015981 4.79169e-05 0.000156615)
(0.000107018 3.60514e-05 0.000110871)
(0.000160261 4.87506e-05 0.000129145)
(0.000197809 4.53259e-05 0.000165152)
(0.000251264 3.81688e-05 0.000193088)
(0.000208064 5.42192e-05 0.000165467)
(6.24478e-05 2.32324e-05 6.57936e-05)
(0.000162548 5.13032e-05 8.44869e-05)
(-6.26648e-06 -8.9094e-06 3.31459e-05)
(2.1773e-05 8.48406e-06 3.83343e-05)
(0.000116774 4.4034e-05 4.13247e-05)
(0.000161331 5.05798e-05 0.000106141)
(0.00015305 3.2017e-05 5.19835e-05)
(0.000205161 5.20075e-05 0.000120955)
(0.000259774 4.09831e-05 9.27493e-05)
(0.000145943 4.70198e-05 4.7214e-05)
(0.000161118 4.27939e-05 6.52453e-05)
(0.000249636 5.39711e-05 8.26854e-05)
(0.000380616 2.19795e-05 0.000351303)
(0.000437894 -4.23487e-06 0.000448991)
(0.00039162 5.18105e-06 0.0003901)
(0.000440972 2.31732e-06 0.000438054)
(0.000297443 3.94979e-05 0.000242007)
(0.000361726 8.74412e-06 0.000305992)
(0.000327619 2.35094e-05 0.000265373)
(0.000343262 2.23921e-05 0.000294025)
(0.000300429 4.06221e-05 0.000211891)
(0.000333219 3.1634e-05 0.000277172)
(0.000413208 -1.31285e-05 0.000278119)
(0.000477975 1.10821e-06 0.000372512)
(0.000479425 -2.81486e-05 0.000418407)
(0.000450968 -1.0962e-05 0.000346146)
(0.00039943 1.72299e-05 0.000374247)
(0.000306532 3.59482e-05 0.000126706)
(0.000333808 2.87336e-05 0.000165761)
(0.000383953 2.5087e-06 0.000233148)
(0.000355006 2.23656e-05 0.000164846)
(0.000353893 2.08231e-05 0.000195498)
(0.000286082 4.7436e-05 0.000129662)
(0.000336074 2.82886e-05 0.000160542)
(0.000457307 5.14349e-06 0.000296728)
(0.000473863 -2.41415e-05 0.000324463)
(0.000541671 -4.62392e-05 0.000312187)
(0.000460563 -8.57831e-06 0.000263117)
(0.000427465 3.87532e-06 0.000234012)
(0.000456725 -9.88858e-06 0.00023498)
(0.00027651 4.72954e-05 0.000470321)
(0.000289235 2.4586e-05 0.000474918)
(0.000324739 -2.57482e-05 0.000502978)
(0.000315808 1.14145e-05 0.000492549)
(0.000265204 6.0309e-05 0.00044449)
(0.000295661 2.91643e-06 0.000443873)
(0.000418646 -2.96602e-05 0.000620214)
(0.000288236 2.86577e-05 0.000472251)
(0.00031255 1.0582e-05 0.000478456)
(0.000354248 2.07236e-05 0.000544832)
(0.00034015 4.32722e-06 0.000484117)
(0.000307616 1.95128e-05 0.000443329)
(0.000334566 2.08509e-05 0.000486351)
(0.000439443 -9.85908e-06 0.00062629)
(0.000466316 1.83226e-05 0.000766269)
(0.000345055 4.07093e-05 0.000547799)
(0.000387298 4.29878e-05 0.000624729)
(0.000390398 5.78299e-05 0.00065458)
(0.000411832 2.60676e-06 0.00062944)
(0.000543398 -7.17111e-05 0.00076554)
(0.000492733 -8.80151e-05 0.000667316)
(0.00039582 7.65672e-05 0.000657694)
(0.000404815 8.60239e-06 0.000613687)
(0.000351314 2.73703e-05 0.000516414)
(0.000390067 2.21432e-05 0.000569378)
(0.000373715 6.5352e-06 0.000508438)
(0.000321871 2.55116e-05 0.000445165)
(0.000361024 2.07633e-05 0.000496363)
(-3.631e-05 -2.99854e-05 0.000161391)
(0.000451345 -3.84873e-05 0.000595272)
(0.000398016 1.20292e-05 0.000518313)
(0.000445611 2.84599e-05 0.000596739)
(0.000383832 1.65763e-05 0.000577116)
(0.000433925 -5.72361e-06 0.000590875)
(0.000498354 -1.63937e-05 0.000669353)
(0.000415252 -1.13605e-05 0.000515192)
(0.000381209 -2.95887e-07 0.000435225)
(0.000386695 3.39877e-05 0.000515616)
(0.000622406 -3.36062e-05 0.000950176)
(0.000419404 3.54052e-05 0.000656382)
(-3.64517e-05 -2.58032e-05 0.000149132)
(0.000442797 1.36447e-05 0.000654847)
(0.000504758 1.83119e-05 0.000755552)
(0.000598318 -3.51812e-05 0.000866805)
(0.000577073 -6.29875e-05 0.000776093)
(0.000401973 1.65744e-05 0.000571318)
(-4.15831e-05 -2.12375e-05 0.000160919)
(0.000476803 -8.47667e-05 0.000537763)
(0.00051059 1.80566e-06 0.000684578)
(0.000573656 -1.91638e-05 0.000837015)
(0.000482911 3.2034e-06 0.000695748)
(0.000543464 1.93587e-05 0.000779866)
(0.000593208 -1.8844e-05 0.000799751)
(0.000498788 4.35584e-05 0.000696066)
(0.000660551 -7.62543e-05 0.000847689)
(0.000545319 -3.14453e-05 0.000699924)
(0.00059489 -5.62698e-06 0.000808443)
(0.000473608 4.11286e-05 0.00074685)
(0.000475883 -1.07363e-05 0.000705847)
(0.000580605 -3.99044e-05 0.000842716)
(0.000646118 -1.74652e-05 0.000977315)
(0.000616446 -8.71497e-05 0.000889396)
(0.000551731 9.74193e-05 0.000873007)
(0.000673636 -6.13235e-05 0.00102131)
(0.000622109 0.000124152 0.000995248)
(0.000579422 4.19022e-05 0.000906761)
(0.000561243 2.00574e-05 0.000847991)
(0.000668192 -4.55331e-05 0.000966737)
(0.000529239 -1.52601e-06 0.000802638)
(0.000561773 -1.83333e-05 0.000793441)
(0.000651205 -5.02659e-05 0.000894146)
(0.000767134 -7.60809e-05 0.00102213)
(0.000561259 -2.46945e-05 0.000801606)
(0.000619154 -5.59582e-05 0.000781467)
(0.000680273 1.83291e-05 0.000938287)
(0.00043554 8.45462e-06 0.000505766)
(0.000403827 -3.40374e-05 0.000476558)
(0.000466404 -4.41001e-05 0.000496511)
(0.000470654 2.01122e-05 0.000600978)
(0.000550501 -1.19114e-05 0.000683286)
(0.00049322 2.08261e-05 0.000587206)
(0.000486867 -3.22607e-05 0.000511187)
(0.000482092 -2.11746e-05 0.000436856)
(0.000489911 -2.56225e-06 0.000493284)
(0.000578078 -3.94166e-05 0.000609275)
(0.000541066 -5.10562e-05 0.000512663)
(0.000576166 -3.44469e-05 0.000588901)
(0.000613829 -5.89433e-05 0.000712381)
(-4.43059e-05 -1.70492e-05 0.000159147)
(0.000528742 -2.74067e-05 0.000620061)
(0.0005765 -2.42689e-05 0.000694743)
(0.000717043 -0.000112887 0.000858066)
(0.000618791 -5.42128e-05 0.000706609)
(0.000654715 -1.98306e-05 0.000819309)
(-4.76024e-05 -1.23502e-05 0.000160454)
(0.000663963 -9.12689e-05 0.000705012)
(0.000639791 -0.000121957 0.000539278)
(-3.61079e-05 -3.43899e-05 0.000183822)
(0.000633477 -2.3945e-05 0.000718805)
(0.00053291 -3.22305e-05 0.00048193)
(-4.01735e-05 -2.70771e-05 0.000187079)
(0.000532404 -4.50446e-05 0.000415728)
(0.000538441 -1.66603e-05 0.000477851)
(-3.43826e-05 -3.42024e-05 0.000169024)
(0.000627685 -3.68163e-05 0.000440659)
(-3.75303e-05 -1.66755e-05 0.000170332)
(-4.08404e-05 -2.86472e-05 0.000183857)
(0.000591281 -8.98107e-05 0.000484574)
(0.000616124 -0.00010076 0.000426288)
(-4.2014e-05 -2.72323e-05 0.00018358)
(0.000611427 -2.09437e-05 0.00060022)
(0.000597621 -0.000428038 0.000202359)
(-4.55582e-05 -1.97791e-05 0.000178844)
(0.000637313 -0.00045973 0.000120225)
(0.000518459 -0.000397127 0.000116041)
(-4.45662e-05 -2.04268e-05 0.000182934)
(0.000455468 -0.000381289 0.000171215)
(0.000511743 -0.000422081 0.000140759)
(-4.84692e-05 -1.30222e-05 0.000191657)
(0.000388509 -0.000349586 0.000107549)
(0.000472641 -0.000361211 0.000224204)
(-3.72671e-05 -1.96069e-05 0.000164868)
(-3.3755e-05 -1.73685e-05 0.000152029)
(0.000506525 -0.000399841 0.000110458)
(-3.93977e-05 -2.37858e-05 0.000154483)
(-4.12703e-05 -1.81886e-05 0.000168855)
(0.000331671 -0.000309432 0.000154062)
(-3.97067e-05 -1.58056e-05 0.000153343)
(-4.36493e-05 -1.31832e-05 0.000167225)
(0.000393691 -0.000366138 0.000141437)
(-4.22297e-05 -1.25711e-05 0.0001515)
(0.000293283 -0.000283849 0.000120367)
(0.000198447 -0.000218311 0.000100764)
(0.00029575 -0.000294066 0.000150241)
(0.000219639 -0.000214266 0.000135261)
(0.000185098 -0.00019521 0.000108523)
(0.000254097 -0.000232113 0.000136685)
(0.000189578 -0.000197117 0.000107919)
(0.000330985 -0.000270219 0.000204882)
(0.000364553 -0.000309694 0.000140638)
(0.000398712 -0.000395039 6.32987e-05)
(0.000544855 -0.000457877 8.19889e-05)
(0.000389775 -0.000330061 0.00011952)
(0.000231214 -0.00024316 7.24466e-05)
(0.00038307 -0.000360619 0.000107398)
(0.000279414 -0.000247797 0.000138457)
(0.000256866 -0.000256957 0.000145393)
(0.000284663 -0.000236462 0.000174308)
(0.000337753 -0.000284466 0.000119569)
(0.000145786 -0.000185007 5.47909e-05)
(0.000227022 -0.000206565 0.000115887)
(0.000165798 -0.000167601 0.000100118)
(7.07325e-05 -9.28538e-05 6.58095e-05)
(0.000123207 -0.000135563 9.7791e-05)
(9.77618e-05 -9.85889e-05 0.000103117)
(8.1972e-05 -9.713e-05 9.59678e-05)
(6.48184e-05 -5.72692e-05 9.55154e-05)
(4.99423e-05 -6.25615e-05 6.77743e-05)
(-2.55714e-05 -3.87616e-05 0.000145255)
(7.19389e-05 -6.31788e-05 8.70358e-05)
(5.79132e-05 -6.53018e-05 6.78837e-05)
(4.76199e-05 -5.3623e-05 7.2028e-05)
(4.2942e-05 -3.62792e-05 6.51256e-05)
(0.000174883 -0.000201523 0.000117273)
(-2.83953e-05 -3.54583e-05 0.000147615)
(0.000112693 -0.000132894 8.37688e-05)
(0.000177786 -0.000171138 0.000119395)
(0.000139573 -0.000140049 0.000110327)
(0.000109855 -0.00012211 0.000103665)