/*--------------------------------*- C++ -*----------------------------------*\
  =========                 |
  \\      /  F ield         | OpenFOAM: The Open Source CFD Toolbox
   \\    /   O peration     | Website:  https://openfoam.org
    \\  /    A nd           | Version:  7
     \\/     M anipulation  |
\*---------------------------------------------------------------------------*/
FoamFile
{
    version     2.0;
    format      ascii;
    class       volScalarField;
    location    "1.25";
    object      p;
}
// * * * * * * * * * * * * * * * * * * * * * * * * * * * * * * * * * * * * * //

dimensions      [0 2 -2 0 0 0 0];

internalField   nonuniform List<scalar> 
382612
(
0.00235402
0.00232093
0.00222023
0.00221778
0.00217205
0.00261245
0.00232925
0.00208533
0.00203246
0.00185686
0.00193527
0.00192357
0.00185103
0.00220078
0.00210949
0.00237031
0.00234433
0.0024232
0.00225345
0.00232521
0.00237883
0.00244533
0.0025127
0.00263804
0.00260041
0.00255562
0.00251704
0.00323783
0.00331196
0.00337222
0.00342163
0.00323503
0.0032138
0.00318959
0.00315791
0.00302378
0.00248385
0.00240492
0.00254706
0.00262297
0.00269461
0.00276159
0.0027475
0.00271394
0.00267239
0.00262635
0.00255619
0.00257783
0.00261413
0.00264557
0.00276897
0.00271092
0.00265035
0.00258909
0.00246016
0.0024953
0.00243198
0.00231077
0.00246844
0.00248829
0.00253549
0.00265446
0.00268163
0.00289406
0.00248233
0.00238771
0.00288499
0.00302723
0.00311126
0.00335277
0.00339013
0.00340189
0.00341004
0.00377399
0.00375899
0.00373872
0.00370124
0.00354282
0.00317111
0.0033441
0.00341375
0.00345877
0.00348992
0.00390079
0.00390372
0.00390211
0.0038509
0.00354483
0.00271116
0.00296652
0.00303241
0.00306454
0.00308559
0.00326803
0.00327768
0.00328685
0.00325395
0.00303541
0.00252113
0.00238734
0.00250406
0.00255576
0.00261202
0.00267582
0.00257289
0.00255112
0.00252819
0.00252168
0.00238358
0.00242279
0.00246352
0.0024965
0.00273754
0.00267027
0.00260381
0.00254144
0.00239524
0.002257
0.00218315
0.00223295
0.00227329
0.00230354
0.00245534
0.00238307
0.00231515
0.00224912
0.00209909
0.00198957
0.00214429
0.00241477
0.00246928
0.00249622
0.002511
0.00270461
0.00270617
0.00270593
0.00269209
0.00273944
0.00271082
0.00267561
0.0026661
0.00265299
0.00264162
0.00214893
0.00212852
0.00210357
0.00207388
0.00222279
0.00227552
0.00231761
0.0023538
0.00237824
0.00233536
0.00229556
0.00226438
0.00228054
0.00227187
0.00219379
0.00219398
0.00221321
0.0022326
0.00209792
0.00214773
0.00223209
0.00208041
0.0020811
0.00208138
0.00243197
0.00257638
0.00184986
0.00198008
0.0023593
0.00205897
0.00215314
0.00218318
0.00218461
0.00219305
0.00220414
0.00220971
0.00280053
0.00281322
0.00283212
0.00283876
0.00273539
0.00203045
0.00205179
0.00206078
0.00207253
0.00208249
0.00261442
0.00263561
0.00266633
0.00268806
0.00264383
0.00226323
0.00235016
0.00241884
0.00243266
0.00243854
0.00244662
0.00220074
0.00219924
0.00220085
0.00221387
0.00169324
0.00170784
0.00172668
0.00173733
0.00222756
0.00221019
0.00218899
0.00216984
0.00217709
0.00169212
0.00163545
0.00211603
0.00200739
0.00163473
0.00190129
0.00208743
0.00187073
0.00206064
0.00199054
0.00185559
0.00156522
0.00184389
0.00184581
0.00160101
0.00150937
0.00179869
0.00178526
0.00145262
0.00173559
0.00189861
0.00185851
0.00169441
0.00175338
0.00190826
0.00199629
0.00203285
0.00232684
0.00217958
0.00230303
0.0024702
0.00224618
0.00208964
0.00218229
0.0022124
0.0022518
0.00229548
0.002624
0.0026073
0.00258102
0.00252075
0.00295656
0.00294856
0.00293746
0.00292432
0.00357139
0.00355416
0.00353526
0.00348966
0.00327656
0.00297285
0.0028918
0.00296644
0.00300606
0.00302446
0.00304119
0.00261238
0.0026078
0.00259202
0.00256508
0.00257338
0.00314745
0.00314961
0.00317552
0.00319718
0.00321263
0.00322417
0.00320511
0.00317657
0.00315262
0.00315651
0.00351715
0.00352299
0.0035282
0.00354468
0.00355868
0.00379779
0.00379497
0.00378959
0.0037705
0.00365955
0.00355845
0.003729
0.00377648
0.00380042
0.00381491
0.00436694
0.00436843
0.00436935
0.00432898
0.00403554
0.003187
0.00328474
0.00331363
0.00334234
0.00336699
0.00330778
0.00329343
0.00327293
0.00322792
0.00302005
0.00269822
0.00284393
0.00290017
0.00293917
0.00296514
0.00343192
0.00344886
0.00347235
0.00346329
0.00325742
0.00216663
0.00224932
0.0022752
0.0023073
0.0023356
0.00276432
0.00284485
0.00286944
0.0028858
0.00289734
0.0025412
0.00251553
0.00248184
0.0024486
0.00234988
0.00297122
0.00308045
0.00307427
0.00304428
0.00302025
0.00214912
0.00213191
0.0021088
0.00208845
0.00203525
0.0027336
0.00273866
0.00271078
0.00267698
0.0026531
0.001965
0.00196117
0.00195678
0.00196629
0.00202999
0.002035
0.00202365
0.00203056
0.00204642
0.00205942
0.00244986
0.00247297
0.00250444
0.002538
0.00258794
0.00201128
0.0019153
0.00190482
0.00191286
0.00191936
0.00240421
0.00241979
0.00244122
0.00245703
0.0024322
0.00213038
0.00216118
0.00219593
0.00220795
0.00221317
0.0022189
0.00208061
0.0020763
0.00207276
0.00208054
0.00179975
0.00180325
0.0018133
0.00181971
0.00209767
0.00209012
0.0020805
0.00206941
0.0020566
0.00181152
0.00208123
0.00205149
0.00205148
0.00205718
0.00205994
0.00197888
0.00208714
0.00228438
0.00224061
0.00222181
0.00220889
0.00219921
0.00202616
0.00202532
0.00202386
0.00202437
0.0021308
0.00213215
0.00213229
0.00213452
0.00213254
0.00213004
0.00212854
0.00212607
0.00204206
0.00204451
0.00205129
0.0020551
0.00227047
0.00227874
0.00228668
0.00229211
0.00232706
0.00207604
0.00212109
0.0021224
0.00211071
0.00181719
0.00194719
0.00198459
0.0018442
0.00181977
0.0020035
0.00197413
0.00168986
0.0022337
0.00220648
0.00211195
0.00208684
0.00202775
0.00211753
0.00185376
0.00185528
0.00204185
0.00226061
0.00236643
0.00230048
0.00228625
0.00228282
0.00228196
0.00220757
0.00220277
0.00219541
0.00219451
0.00223927
0.00249979
0.00247876
0.00246453
0.00245869
0.00245832
0.00239776
0.00240079
0.00240717
0.00242175
0.00247659
0.00222837
0.00214382
0.00214214
0.00214184
0.00213971
0.00213932
0.00219597
0.00218956
0.00218254
0.00218421
0.0019763
0.00198069
0.00198708
0.00199063
0.00204809
0.00204792
0.00204798
0.00204832
0.0020579
0.00197679
0.00220636
0.00217867
0.00217809
0.00217676
0.00217344
0.00217797
0.00227009
0.00228253
0.00223552
0.00223641
0.0022444
0.00224964
0.00244632
0.00244434
0.00244065
0.00243897
0.00246512
0.00256859
0.00257012
0.00256468
0.00256041
0.00255834
0.002405
0.00240417
0.00240407
0.00241277
0.0024693
0.00241609
0.00238696
0.00238442
0.00238124
0.00237842
0.00215388
0.00214869
0.00214266
0.0021443
0.00213474
0.0021303
0.0021241
0.00211998
0.00211458
0.00211866
0.0021235
0.00212725
0.00215336
0.00214952
0.00215082
0.00215106
0.0023981
0.00239
0.00237855
0.00236917
0.00239746
0.00219402
0.00213814
0.00215621
0.0022426
0.00206602
0.00205811
0.00210723
0.00210382
0.00187878
0.00199603
0.00202454
0.00188126
0.00232599
0.00221089
0.00216099
0.00225417
0.00217418
0.00213807
0.00227107
0.00233347
0.00247791
0.00244959
0.00244558
0.00239322
0.00238687
0.0023918
0.00239649
0.00252469
0.00251971
0.00251327
0.0025104
0.0025314
0.00258421
0.00257724
0.00257486
0.00257357
0.00257218
0.00245769
0.002459
0.00245917
0.00245926
0.00248964
0.00256339
0.00254205
0.00254071
0.00253908
0.00253729
0.00249327
0.00248415
0.00247145
0.00245821
0.00246428
0.00229014
0.0022574
0.00224908
0.00224226
0.00223567
0.00237756
0.00236762
0.00235527
0.00234235
0.00234598
0.00220808
0.00212987
0.00212951
0.00213433
0.00213467
0.00213382
0.00215364
0.00214999
0.00214566
0.00215202
0.00221317
0.00221313
0.00221645
0.00221942
0.00213607
0.00213652
0.00213715
0.00213622
0.00213673
0.00223648
0.00224717
0.00215982
0.00217556
0.00222475
0.0020528
0.00207614
0.00218318
0.00223293
0.0022658
0.00215561
0.00206812
0.00210892
0.00191857
0.00194457
0.0020708
0.00221222
0.0021525
0.00208059
0.00214241
0.00222739
0.00240984
0.00251698
0.00258663
0.00257796
0.00252968
0.00251794
0.00251999
0.00252374
0.00252669
0.00263685
0.00264034
0.00264602
0.00265339
0.00265793
0.00273362
0.00273174
0.00272701
0.00272253
0.00271937
0.00256768
0.00256175
0.00255462
0.0025529
0.00258679
0.00265028
0.002664
0.00266906
0.00266941
0.00266855
0.00272668
0.00272622
0.00272625
0.00272571
0.00271906
0.00260995
0.0025776
0.00257951
0.00258788
0.00259416
0.00268801
0.00268916
0.00268931
0.00268342
0.00266719
0.00253033
0.00253073
0.00253577
0.00253977
0.00254196
0.00231412
0.00231053
0.00230543
0.00229872
0.00228886
0.00217995
0.00213969
0.00215134
0.00215581
0.0021548
0.00215177
0.00218743
0.00218408
0.00217936
0.00217606
0.00223269
0.00223545
0.00224171
0.00225001
0.00216614
0.00216315
0.0021569
0.00214606
0.00212849
0.0022257
0.00236219
0.00238444
0.00239414
0.00240331
0.00241095
0.00242654
0.0024178
0.00241029
0.0024048
0.00238255
0.00222217
0.00214045
0.00215965
0.0021671
0.00217326
0.00218074
0.00226889
0.00225462
0.00223868
0.00222908
0.00224753
0.00226312
0.00227504
0.0022831
0.002222
0.00220967
0.0021974
0.00217848
0.0021131
0.00221343
0.00236251
0.00220607
0.00205887
0.00208356
0.00248305
0.00227361
0.00210716
0.00219584
0.00233299
0.00218283
0.00208293
0.00213564
0.00216669
0.00205309
0.00203748
0.00214808
0.002435
0.00217384
0.00198402
0.00205847
0.00189821
0.00191539
0.00185859
0.00179115
0.00167632
0.00182229
0.00183284
0.0016535
0.00176266
0.00188552
0.00192379
0.00183425
0.00192818
0.00197792
0.00196769
0.00187617
0.00204642
0.00219726
0.00236604
0.00243334
0.00251379
0.00244892
0.0024326
0.00242707
0.00242487
0.00247395
0.00247688
0.00248357
0.00249678
0.00251111
0.00258605
0.00257772
0.00256762
0.00256103
0.00255691
0.00245095
0.00244942
0.00244735
0.00244608
0.00245306
0.00254464
0.0025197
0.00250877
0.00250342
0.00250087
0.00258998
0.00259232
0.00259573
0.0026012
0.00261189
0.00269474
0.00268913
0.00268777
0.00268819
0.00268771
0.00262502
0.00262169
0.00261535
0.0026099
0.00261739
0.00271873
0.0027241
0.00273368
0.00274129
0.00274627
0.00281581
0.00281665
0.00281777
0.00281665
0.00280475
0.0027812
0.00279064
0.00279337
0.0027933
0.00279247
0.00290196
0.00290112
0.00289877
0.00289156
0.00287235
0.00285424
0.00289249
0.00290449
0.00290771
0.00290848
0.00265023
0.00264113
0.00262951
0.00262335
0.00263549
0.00263466
0.00267214
0.00268508
0.00268811
0.00268856
0.00251855
0.00252035
0.00251933
0.00251288
0.0024895
0.00266219
0.0027273
0.00274429
0.00274302
0.00273767
0.0023116
0.00229778
0.00228276
0.00227351
0.00225211
0.00227804
0.00229659
0.00231305
0.00230907
0.0022912
0.00227218
0.00224955
0.00219095
0.00231982
0.0023509
0.00236408
0.00238114
0.00239598
0.0025743
0.00257261
0.00256632
0.00255408
0.00251846
0.00258002
0.00268521
0.00270795
0.00271892
0.00272959
0.00243866
0.0024153
0.0023905
0.00237343
0.00223463
0.00225765
0.00228189
0.00230659
0.00235976
0.0023311
0.00230056
0.002262
0.00235995
0.00239008
0.00241578
0.00243739
0.00287778
0.0028794
0.00287704
0.00284813
0.00272753
0.00227834
0.00216381
0.00226903
0.00242615
0.00256597
0.00231405
0.00215371
0.00231584
0.00225952
0.00217999
0.00216477
0.00230686
0.00225183
0.00210298
0.00225086
0.00256279
0.00226344
0.0020901
0.00201611
0.00211385
0.00181613
0.00184989
0.0018028
0.00168416
0.00160058
0.00178534
0.00179017
0.00166151
0.00185104
0.00187518
0.0019614
0.00203997
0.00224625
0.00222284
0.00234259
0.00243645
0.00252291
0.00256731
0.00256371
0.00251729
0.00243194
0.00227879
0.00215978
0.00218405
0.0021991
0.00220694
0.00221038
0.00252417
0.00252195
0.00252225
0.00253128
0.00254389
0.00246405
0.00245656
0.00246777
0.00247846
0.00248551
0.00266877
0.00266847
0.00266929
0.00267001
0.00265696
0.00268506
0.00274246
0.0027476
0.00274572
0.00274481
0.00266873
0.00266339
0.00265539
0.00264387
0.00260901
0.0027812
0.00280502
0.00280871
0.00280901
0.00280922
0.0029353
0.00293459
0.00293475
0.00293036
0.00288267
0.00280006
0.00283682
0.0028508
0.00286125
0.00286792
0.00296665
0.00296486
0.0029619
0.00295415
0.00291962
0.00283338
0.0028509
0.00286423
0.0028752
0.00288218
0.00306487
0.00306198
0.00306017
0.00305602
0.00301777
0.0030167
0.0030288
0.00303268
0.00303724
0.00304102
0.00293779
0.00292751
0.00291327
0.00289936
0.00287708
0.00290609
0.00296153
0.00297494
0.00297547
0.00297229
0.00261366
0.00259928
0.00258257
0.00257629
0.00260888
0.00275401
0.00277684
0.00278443
0.00279285
0.00279979
0.00293507
0.00293583
0.00293338
0.00291563
0.00285602
0.00310398
0.00312901
0.00313869
0.00315417
0.00316725
0.00302009
0.00301118
0.0029993
0.00298692
0.00295154
0.00266221
0.00274024
0.00277242
0.00279662
0.00281351
0.00281904
0.002805
0.00278918
0.00276418
0.00265645
0.00241125
0.00223778
0.00228499
0.00231135
0.00233809
0.0023678
0.00252939
0.00250431
0.00247689
0.00245908
0.00248612
0.00250927
0.00253725
0.00256027
0.00246462
0.00243179
0.0023988
0.00236216
0.00229408
0.00244668
0.00242574
0.00228437
0.00218204
0.00232264
0.00241289
0.00221817
0.00219638
0.00235394
0.00213338
0.00207734
0.00220192
0.00237381
0.00236025
0.00218163
0.00210614
0.00225093
0.00247798
0.00224371
0.00225728
0.00244876
0.00235861
0.00217135
0.00199146
0.00202272
0.00193483
0.00194324
0.00211645
0.00217629
0.00252115
0.00273152
0.00276061
0.00277543
0.00274264
0.00268443
0.00258788
0.00245659
0.00229034
0.00211518
0.00189554
0.00171771
0.00163674
0.00169496
0.00170641
0.00170644
0.00170458
0.00202816
0.00202576
0.00202592
0.00203071
0.00201162
0.00214704
0.00218817
0.00220855
0.00221831
0.00222226
0.00250763
0.0025036
0.00250129
0.00250214
0.00247902
0.0025979
0.00260834
0.00260921
0.00261142
0.00261347
0.00263663
0.00263053
0.00262314
0.00261604
0.00258663
0.00279014
0.00280918
0.00281383
0.00281897
0.00282335
0.00286317
0.0028553
0.00284565
0.00283513
0.00280443
0.00298753
0.00301813
0.00302964
0.00303863
0.00304509
0.00308882
0.00308119
0.00306894
0.00305082
0.0030087
0.00306369
0.00310131
0.0031163
0.00312464
0.00312917
0.00320548
0.00320459
0.00320114
0.00318525
0.00311459
0.00323164
0.0032737
0.00329081
0.00329954
0.00330534
0.00325844
0.00325328
0.00324395
0.00322358
0.00317595
0.00292453
0.00296351
0.00298561
0.00300577
0.00302085
0.00314956
0.00314331
0.00313616
0.00312905
0.00311341
0.00299573
0.00309958
0.00317127
0.003159
0.00329596
0.00335248
0.0033623
0.00336569
0.00336971
0.00323522
0.00322526
0.00321005
0.00319111
0.00316106
0.00340458
0.0034461
0.00345369
0.00346152
0.0034693
0.00345717
0.00345074
0.00344283
0.00343007
0.00337483
0.00331035
0.00337077
0.00338689
0.00339924
0.00340892
0.0031442
0.00312715
0.00310503
0.0030828
0.00302882
0.00295884
0.00304933
0.00307693
0.00308947
0.00309667
0.00290486
0.00289788
0.00288655
0.00285634
0.00276228
0.00235511
0.00222698
0.0023088
0.00235211
0.00238896
0.00242626
0.00250586
0.00248369
0.00245393
0.00242413
0.00245157
0.00247096
0.00249741
0.00251838
0.00250771
0.0024857
0.00246031
0.00242549
0.00234361
0.00242857
0.00241333
0.00230971
0.00236007
0.00246949
0.00260047
0.00289896
0.00292005
0.00287554
0.00292532
0.00294867
0.00296336
0.00297377
0.00287952
0.00286851
0.00285399
0.00284136
0.0028183
0.00265524
0.00272616
0.00274491
0.00274834
0.00274933
0.00259002
0.00257888
0.00256634
0.00255209
0.00252309
0.00236115
0.00218028
0.0021887
0.00220177
0.00221571
0.00223173
0.00239711
0.00238721
0.00237546
0.00236706
0.00242139
0.00243242
0.00244814
0.00246144
0.00238102
0.00236633
0.00235059
0.00232782
0.00227353
0.00239036
0.00229978
0.00222834
0.00216658
0.00228348
0.00231621
0.00217251
0.00211721
0.00226413
0.00237343
0.00215942
0.00218052
0.00241585
0.00206985
0.00206428
0.00207142
0.00216495
0.00245321
0.00226991
0.00225521
0.00248387
0.00240372
0.00218613
0.00204614
0.00214517
0.00184857
0.00189675
0.00174592
0.00142433
0.00150266
0.00173344
0.00182121
0.00161855
0.00186258
0.00186514
0.00171932
0.00150228
0.00135421
0.00171634
0.00168825
0.0012594
0.00113427
0.00167876
0.00168237
0.00125907
0.00125137
0.00167789
0.00172238
0.0014243
0.00138463
0.00171797
0.00172644
0.00137829
0.00159889
0.00182693
0.00185364
0.0015484
0.00159072
0.0018496
0.00177901
0.00145833
0.00141922
0.0017618
0.00186766
0.00171979
0.00165094
0.0018594
0.00193273
0.00171959
0.00166979
0.0018498
0.00185742
0.0019603
0.00188647
0.00187704
0.00187888
0.00187875
0.0020012
0.00199923
0.0019962
0.00200186
0.00205232
0.00252081
0.00241907
0.00238893
0.0023707
0.00235885
0.00201217
0.00200797
0.00200425
0.00201976
0.00213026
0.00238414
0.00235154
0.00232689
0.00231014
0.00230028
0.00216575
0.00215302
0.00213804
0.00213498
0.00219318
0.0020592
0.00195722
0.00188659
0.00199873
0.00193013
0.00191984
0.00192087
0.00192036
0.00215967
0.00216104
0.0021611
0.00216374
0.002209
0.00251735
0.00244846
0.00242366
0.0024133
0.00240837
0.0021767
0.00217261
0.00216861
0.00217979
0.0022631
0.00246519
0.00244915
0.0024314
0.00241977
0.00241293
0.00223194
0.00222711
0.00222199
0.00223223
0.00232738
0.00223776
0.00220159
0.00218647
0.00227189
0.00229162
0.00222283
0.00220952
0.00221006
0.00221231
0.00240714
0.00241291
0.00242355
0.002442
0.00246006
0.00249074
0.00246594
0.00245034
0.00244203
0.0024377
0.00231455
0.00231199
0.00230936
0.00231592
0.00236129
0.00240356
0.00234653
0.00234016
0.00234252
0.00234454
0.00236079
0.00249269
0.0024642
0.00247865
0.00238266
0.00239679
0.00234479
0.00233826
0.00234245
0.00234661
0.00252941
0.00253214
0.00254012
0.00255586
0.00257208
0.00260467
0.00258867
0.00257877
0.00257519
0.00257426
0.00243349
0.00242914
0.00242253
0.00241846
0.00243913
0.00256239
0.00253534
0.00252211
0.00251762
0.00251649
0.00221596
0.00221167
0.00220352
0.0021916
0.00217726
0.00220439
0.00221409
0.00220928
0.0022075
0.00220721
0.00208064
0.00207981
0.00207969
0.0020836
0.00207475
0.00187094
0.00190347
0.00190049
0.00190117
0.00190457
0.00183871
0.00184731
0.00185841
0.00185898
0.00179713
0.00145275
0.00143138
0.0014253
0.00142426
0.00142418
0.00139421
0.00139372
0.00139557
0.00140053
0.00141263
0.00159287
0.00160603
0.00161639
0.00161734
0.00161319
0.00189674
0.00189449
0.00189424
0.00189988
0.00189913
0.00211496
0.00211608
0.002116
0.00211968
0.00212394
0.00239363
0.00239074
0.00238318
0.00236436
0.00230612
0.00266139
0.00272418
0.00272674
0.00271994
0.00271618
0.00263835
0.00263678
0.0026292
0.00260969
0.00256839
0.00288862
0.00292741
0.00292826
0.00292564
0.00292632
0.00321962
0.00321779
0.00321647
0.00320724
0.00314097
0.00306232
0.00310975
0.00312995
0.00314266
0.00314935
0.00322029
0.00321063
0.00319838
0.00318787
0.00317708
0.00335516
0.0034138
0.00342217
0.00342372
0.00342585
0.00346317
0.00345747
0.00345108
0.00344301
0.00339652
0.00326834
0.0033382
0.00336073
0.00337637
0.00338743
0.00336769
0.0033607
0.00334985
0.00333008
0.00326829
0.00319978
0.00326472
0.00328688
0.00330099
0.00331091
0.00340038
0.00339538
0.00338937
0.00337718
0.00332523
0.00310548
0.0031606
0.00317479
0.00318292
0.00318803
0.00303057
0.00302547
0.0030188
0.00300934
0.00298612
0.0027976
0.00282002
0.00282861
0.00283481
0.00283878
0.0025842
0.00258262
0.00258041
0.00257659
0.00256759
0.00236661
0.00235196
0.00235653
0.00236276
0.00236722
0.00239443
0.00239701
0.00240085
0.00240002
0.00239703
0.00221042
0.00207814
0.0020683
0.00206917
0.00207127
0.00207364
0.00221733
0.00222056
0.00222296
0.00221829
0.00224276
0.00225166
0.00225726
0.00226142
0.00212214
0.00211113
0.00210072
0.00209381
0.00209653
0.0022306
0.00224875
0.0021139
0.00212724
0.00227172
0.00239243
0.00213963
0.00208799
0.00221046
0.00208951
0.00206105
0.00206662
0.00208648
0.00203705
0.00203045
0.00202173
0.00203709
0.00208256
0.00205757
0.00214863
0.00223803
0.00218735
0.00208534
0.00204673
0.00200075
0.00227753
0.0021539
0.00210738
0.00226179
0.00203136
0.0023376
0.00257192
0.00276517
0.00289176
0.00292136
0.00283102
0.00262692
0.00233514
0.00200332
0.00168232
0.00141357
0.00121786
0.00108403
0.00100898
0.00111588
0.00109567
0.0010889
0.00108654
0.00108507
0.00120314
0.00121089
0.00121766
0.00122126
0.00122057
0.00145127
0.00144431
0.00143138
0.00141868
0.00140957
0.00142536
0.00143498
0.00144416
0.00144652
0.0014452
0.00161399
0.00157023
0.00156325
0.00156727
0.00157196
0.00184412
0.00185086
0.00185531
0.00184773
0.00183162
0.00208327
0.00209239
0.0020935
0.00209806
0.00210153
0.00238432
0.00237844
0.00237189
0.00236916
0.00236861
0.00245918
0.00249354
0.00249243
0.00248699
0.00248277
0.00250639
0.0025103
0.00251043
0.00249774
0.00246431
0.00265646
0.00265271
0.00265772
0.00267087
0.00268202
0.00297945
0.00297309
0.00296638
0.00295794
0.00292591
0.00302727
0.00307419
0.00308072
0.00308027
0.00308037
0.00303732
0.003034
0.00302695
0.00301294
0.00298877
0.00311658
0.00313138
0.00313891
0.00315112
0.0031619
0.00330169
0.00329351
0.00328203
0.00326744
0.00322281
0.00327309
0.00332069
0.00332831
0.0033291
0.00332895
0.00331787
0.00331522
0.00331122
0.0033059
0.00326675
0.00311119
0.00312694
0.00313529
0.00314434
0.00315127
0.00316784
0.00316061
0.00315188
0.00314264
0.00311875
0.0031671
0.00318605
0.003187
0.00318583
0.00318522
0.0029942
0.00299468
0.00299481
0.00299382
0.00299313
0.00279554
0.0027954
0.00279639
0.00279832
0.0028
0.00262549
0.00262428
0.00262339
0.00262107
0.00260607
0.00232249
0.00233069
0.00233997
0.00234934
0.00235569
0.00238891
0.00238296
0.00237516
0.00236537
0.00234503
0.00234713
0.0023436
0.00234043
0.00233541
0.00233148
0.00213687
0.00214451
0.00215094
0.00214792
0.00202438
0.00202485
0.0020268
0.00202869
0.00201267
0.00201235
0.0020112
0.00201173
0.00209623
0.00209707
0.00209011
0.00208227
0.00235756
0.0023623
0.00236909
0.00237042
0.00235758
0.00209844
0.00203469
0.00209213
0.00215394
0.00209587
0.00205683
0.00204692
0.00203577
0.00198656
0.00203306
0.0020336
0.00203141
0.00202558
0.00202123
0.00197242
0.00197146
0.00196898
0.00196843
0.00209848
0.00209772
0.00208886
0.00208201
0.00197114
0.00197107
0.0019693
0.00196399
0.00197318
0.00216834
0.00209492
0.00208123
0.00207132
0.00206478
0.0020521
0.00205474
0.00205916
0.00206777
0.00217869
0.00195779
0.00199458
0.00196946
0.00196625
0.00196495
0.00196233
0.00197738
0.00198505
0.00199296
0.00199236
0.00200256
0.00200909
0.00200768
0.00200638
0.00197975
0.00198251
0.00198524
0.00198611
0.001983
0.00194598
0.001963
0.00201614
0.00203962
0.00206567
0.0019456
0.00198275
0.00197429
0.00191622
0.00210211
0.00202104
0.00202753
0.0020969
0.00209464
0.00202742
0.00206159
0.00211202
0.00203613
0.00211604
0.00223123
0.00229668
0.00238816
0.00246526
0.00252704
0.00255169
0.0025135
0.00238198
0.00217963
0.00194495
0.00167513
0.00144422
0.0012678
0.00112945
0.00117705
0.00118149
0.00117734
0.00116901
0.00116185
0.00107453
0.00107381
0.00107345
0.00107894
0.00111649
0.00128552
0.00129935
0.00129586
0.00128397
0.00127195
0.00130381
0.00130406
0.00130483
0.00130917
0.0013273
0.00154563
0.00150624
0.00149789
0.001496
0.00149532
0.00176283
0.00177214
0.00177956
0.00177597
0.00175655
0.00191856
0.0018819
0.00187823
0.00188629
0.00189464
0.00226398
0.00226223
0.00226035
0.00226093
0.00226007
0.00233049
0.00234068
0.00233808
0.00233382
0.0023319
0.00240249
0.00240761
0.00240968
0.00240163
0.00238235
0.00258098
0.00256041
0.00256238
0.00257402
0.0025855
0.00286737
0.00286371
0.00285846
0.00285567
0.00285733
0.0028738
0.00288918
0.00289308
0.00289239
0.00289133
0.00287546
0.00287517
0.00287268
0.00286628
0.00286709
0.00301818
0.00300282
0.00300268
0.0030113
0.00302045
0.00312194
0.00311505
0.00310811
0.00310719
0.00310919
0.00315205
0.00314678
0.00314908
0.00315648
0.00316319
0.00308288
0.00308643
0.00308916
0.00308764
0.00308247
0.00300774
0.00300437
0.00300653
0.00300555
0.00300385
0.0028921
0.0028929
0.00289325
0.00289323
0.00290084
0.00274006
0.00273723
0.00273699
0.00273717
0.00273788
0.00258101
0.00258131
0.00258267
0.00258426
0.00257607
0.00252578
0.00253453
0.00253369
0.00253182
0.00253116
0.00232319
0.0023178
0.00230952
0.00230039
0.00229235
0.0022222
0.00221179
0.00221421
0.00221993
0.00222422
0.00225874
0.00226657
0.00227781
0.00228701
0.00229159
0.00207296
0.00208819
0.00208582
0.00207813
0.00207016
0.00203857
0.00203949
0.0020387
0.00203768
0.00205754
0.00204365
0.00202215
0.00201649
0.00201284
0.00201067
0.00205945
0.00195678
0.00217497
0.00218409
0.00192782
0.00228712
0.00206479
0.00195305
0.00239733
0.00212444
0.0019332
0.00249032
0.00197188
0.0022597
0.0020704
0.00244747
0.00218437
0.00229259
0.00228056
0.00228144
0.00221331
0.0021724
0.00211909
0.00205739
0.00195971
0.00182019
0.00162386
0.00143224
0.00127876
0.00116197
0.00106169
0.0010646
0.00104643
0.00104065
0.00103602
0.00103224
0.00105701
0.00106866
0.00108092
0.00108913
0.00109643
0.00125571
0.00121186
0.00119767
0.00119662
0.00119893
0.00140579
0.00140965
0.0014174
0.00143459
0.00147646
0.001588
0.00158815
0.00158765
0.00157795
0.00156712
0.00180999
0.001803
0.00179884
0.001813
0.00187162
0.00216546
0.00212499
0.00211334
0.00211212
0.00211337
0.00224945
0.00225671
0.00226212
0.00225985
0.00226358
0.00253819
0.00249642
0.00249038
0.00249915
0.00250898
0.00275427
0.00275062
0.00274897
0.00275633
0.00279037
0.00264601
0.00262587
0.00262377
0.00262293
0.00262203
0.00278747
0.00278772
0.00278874
0.00279038
0.00279984
0.00288674
0.002876
0.00287381
0.00287272
0.0028722
0.0029178
0.00291849
0.00292101
0.00292226
0.00292323
0.00287807
0.00287304
0.00287258
0.00287062
0.00287027
0.00281929
0.00282414
0.00283038
0.00283384
0.00283567
0.00266606
0.00265731
0.00265601
0.00265625
0.00265764
0.00250861
0.00250867
0.00250972
0.0025141
0.00253383
0.00245149
0.00246431
0.00246634
0.00246777
0.0024693
0.0023897
0.00239049
0.00239252
0.00239469
0.00238617
0.0021998
0.00217304
0.00216964
0.00217332
0.00217669
0.00226726
0.00227903
0.00229506
0.0023048
0.0022846
0.00218196
0.00212864
0.00212476
0.00212983
0.00213378
0.00207697
0.00207502
0.00207119
0.00207253
0.0021107
0.00200071
0.0019594
0.00195202
0.00195066
0.00194928
0.00201123
0.00201993
0.00203205
0.00204274
0.00205097
0.00190397
0.00194587
0.00193978
0.00192737
0.00191715
0.00195378
0.00196354
0.00197884
0.0019901
0.00194983
0.00186152
0.00184907
0.00184972
0.00184934
0.00184803
0.0019882
0.00199542
0.00200252
0.00200319
0.00198962
0.0019936
0.00193694
0.00189291
0.00200464
0.00200342
0.00189773
0.00190329
0.00190212
0.00189781
0.00189324
0.00196661
0.00197222
0.00197753
0.00198314
0.00201821
0.00195551
0.00190472
0.00198062
0.0019506
0.00186423
0.00195391
0.0019758
0.00198164
0.0019508
0.00200433
0.00201215
0.00197808
0.00200704
0.00226777
0.00209912
0.00205352
0.00221991
0.00219939
0.00204487
0.00202142
0.00202709
0.00207943
0.00204352
0.00208593
0.00217225
0.00213267
0.00208328
0.00207138
0.00209692
0.0014917
0.00180569
0.00182215
0.00144927
0.00156758
0.00185981
0.00196172
0.00187074
0.00223305
0.00207086
0.00186264
0.00182941
0.00158132
0.00183233
0.00175321
0.00138571
0.00139049
0.00176262
0.0016987
0.00117519
0.00115692
0.00167007
0.00162857
0.00105969
0.00115909
0.00167342
0.00164734
0.00114394
0.000963764
0.0015807
0.00163854
0.00105762
0.00114508
0.00166762
0.00163597
0.000988989
0.00133483
0.00176036
0.00181409
0.00146636
0.0017392
0.00188554
0.00193958
0.00192219
0.00240871
0.00213412
0.00192526
0.00180668
0.00182344
0.00154399
0.00110852
0.000680884
0.000403909
0.000385645
0.000695608
0.00108576
0.00167563
0.00207346
0.00236986
0.00258575
0.00262512
0.00264263
0.00265426
0.00298129
0.00299392
0.00300742
0.00301215
0.00296535
0.00238162
0.00248545
0.00249891
0.00249726
0.0024921
0.00302597
0.00304731
0.00307309
0.00307711
0.00299373
0.00237046
0.00239296
0.00239485
0.00239611
0.00239545
0.00304211
0.0030669
0.00310156
0.00312462
0.00303798
0.00292033
0.0030931
0.00311449
0.00310607
0.00309517
0.00233781
0.00234097
0.00233959
0.00232293
0.00222533
0.00185683
0.00200749
0.00201832
0.00201801
0.00201696
0.0025048
0.00251543
0.00252735
0.00253608
0.00255891
0.00195582
0.00194966
0.00195091
0.00195223
0.0019497
0.00187757
0.00187879
0.0018801
0.00188157
0.00185537
0.00246764
0.00238363
0.00235479
0.00233783
0.00232591
0.00232695
0.00234296
0.00236882
0.00240295
0.00241522
0.00241826
0.00231439
0.00228852
0.00227767
0.00227112
0.00230757
0.0023177
0.00233565
0.00236493
0.00241525
0.00227462
0.00218903
0.0021763
0.00218009
0.00218434
0.00207015
0.00201279
0.00200398
0.00200432
0.00200362
0.00216639
0.00216534
0.00216277
0.0021653
0.00220254
0.00246392
0.00243266
0.00240965
0.00239555
0.00238813
0.00235906
0.00236129
0.0023676
0.00239013
0.00247752
0.00233561
0.00231876
0.00231851
0.00232012
0.00232101
0.00236948
0.00236885
0.00236626
0.00236466
0.00238321
0.0023482
0.00227883
0.0022928
0.00219588
0.00219905
0.00217085
0.00217115
0.00217597
0.00217929
0.00240364
0.00240858
0.00241751
0.00243481
0.00245599
0.00253962
0.00251065
0.00249246
0.00248371
0.00248007
0.00223704
0.00223419
0.00222913
0.00222235
0.00221644
0.0022888
0.00227897
0.00227
0.00226513
0.00226254
0.00223621
0.00223962
0.002249
0.00226577
0.00226062
0.00204889
0.00207564
0.00206826
0.00206504
0.00206625
0.00168306
0.00168036
0.00167132
0.0016505
0.00160272
0.00151121
0.00155493
0.00157314
0.00158172
0.00158396
0.0014443
0.00144686
0.00145206
0.00145887
0.00144197
0.00133608
0.00134904
0.00134405
0.0013393
0.00133705
0.00125177
0.00126221
0.00127587
0.00128769
0.0012877
0.00110077
0.00111714
0.00112219
0.00112156
0.00111833
0.00103953
0.00104072
0.00104259
0.00104597
0.00104924
0.0010388
0.00102083
0.00101267
0.00100835
0.00100597
0.00102079
0.0010235
0.00102849
0.00103651
0.00104939
0.00109807
0.00109721
0.00109205
0.00108334
0.00107525
0.00109968
0.00110234
0.00110631
0.00111396
0.00113491
0.00128512
0.00125148
0.00124237
0.00124081
0.0012402
0.00118669
0.00107945
0.0011749
0.00114939
0.00113761
0.0011314
0.00112813
0.00107146
0.0010277
0.00103235
0.00104421
0.00104446
0.00104053
0.00103631
0.000999781
0.000999527
0.000999868
0.00100417
0.00102879
0.00105986
0.00102872
0.00102147
0.00102011
0.00102027
0.00106383
0.00106291
0.00106176
0.00106263
0.00108173
0.00105526
0.00104219
0.00104195
0.00104372
0.00104482
0.00108398
0.00108418
0.00108574
0.00109318
0.00111934
0.00129368
0.00130212
0.00129681
0.00128451
0.00127347
0.00126445
0.00125971
0.00125516
0.00125894
0.00129474
0.00153438
0.00151106
0.00150294
0.00149996
0.00149866
0.00175068
0.00175982
0.00176746
0.00176201
0.00173298
0.00188156
0.00183528
0.00183086
0.0018401
0.00184799
0.00221389
0.00221159
0.00221076
0.00221125
0.00222548
0.00220968
0.00220824
0.00220846
0.00220656