/*--------------------------------*- C++ -*----------------------------------*\
  =========                 |
  \\      /  F ield         | OpenFOAM: The Open Source CFD Toolbox
   \\    /   O peration     | Website:  https://openfoam.org
    \\  /    A nd           | Version:  7
     \\/     M anipulation  |
\*---------------------------------------------------------------------------*/
FoamFile
{
    version     2.0;
    format      ascii;
    class       volVectorField;
    location    "1.25";
    object      wallShearStress;
}
// * * * * * * * * * * * * * * * * * * * * * * * * * * * * * * * * * * * * * //

dimensions      [0 2 -2 0 0 0 0];

internalField   uniform (0 0 0);

boundaryField
{
    outlet1
    {
        type            calculated;
        value           uniform (0 0 0);
    }
    Wall
    {
        type            calculated;
        value           nonuniform List<vector> 
40276
(
(0.000126256 6.49557e-05 0.000267302)
(-0.000186095 -5.05649e-06 0.000418593)
(-0.000189255 -4.66178e-06 0.000409758)
(0.000233079 -0.000222239 0.000200171)
(0.000184795 -0.000154699 0.000187543)
(0.000141002 -0.000111255 0.000197262)
(0.000120574 -6.32043e-05 0.000199682)
(0.000143495 -3.59287e-05 0.000218799)
(0.000117202 -1.54456e-05 0.000207187)
(0.000118062 -3.39471e-05 0.000217115)
(0.000505762 3.81578e-05 0.00044566)
(0.000588882 3.97134e-06 0.000486137)
(0.000558364 2.1144e-05 0.000895621)
(0.000536728 2.7564e-05 0.000829382)
(0.000193519 4.16323e-05 0.000261648)
(0.00019193 5.33073e-05 0.000291523)
(0.000133505 5.61324e-05 0.000200513)
(0.000144119 3.91373e-05 0.000142402)
(6.05761e-05 -0.000177182 0.000102794)
(8.03882e-05 -0.000235371 0.000137408)
(-5.78238e-05 1.57966e-05 0.000168522)
(-8.01747e-05 1.89349e-05 0.000161525)
(-7.66601e-05 2.13339e-05 5.66171e-05)
(-9.08652e-05 2.00689e-05 5.36957e-05)
(-7.2808e-05 1.74071e-05 3.73401e-05)
(-8.35404e-05 1.85091e-05 3.26388e-05)
(-2.30005e-05 2.53719e-05 -2.03539e-05)
(-3.22297e-05 2.81153e-05 -1.92605e-05)
(-0.000171261 5.47384e-05 7.61458e-05)
(-0.000124283 3.74857e-05 6.51868e-05)
(-0.000233987 7.61035e-05 0.000151437)
(-0.000282805 9.76356e-05 0.000161151)
(-5.28568e-05 -3.0755e-06 0.000160532)
(-4.70845e-05 -4.78081e-06 0.000149256)
(-2.06418e-05 7.88149e-06 2.63279e-06)
(-2.07096e-05 8.56973e-06 2.67237e-06)
(0.000531908 3.36916e-05 4.71694e-05)
(0.000544892 3.7893e-06 2.56575e-05)
(0.00117679 0.000264377 5.16373e-05)
(0.00144484 0.000391181 4.52165e-05)
(0.0008325 2.61712e-05 -6.74294e-06)
(0.000717861 -2.74722e-06 1.45881e-05)
(0.000194764 -2.60919e-05 -0.000704253)
(0.000209835 -2.7385e-05 -0.000708351)
(0.000181887 5.44262e-06 -0.000687666)
(0.000144038 -1.51069e-05 -0.000639345)
(9.5063e-05 7.95865e-06 -0.000648295)
(8.69344e-05 -8.03145e-06 -0.000576523)
(3.41696e-05 -1.26446e-06 -0.000545)
(2.565e-06 3.93575e-06 -0.00049764)
(-2.51266e-06 -9.27262e-06 -0.000452423)
(-3.40325e-05 5.73047e-06 -0.000470398)
(-4.48178e-05 -5.43497e-06 -0.000414727)
(-6.22165e-05 8.93702e-06 -0.0004174)
(0.000484784 7.64346e-05 0.000228143)
(0.000483929 8.72226e-05 0.000178692)
(-0.000187168 7.06741e-05 0.000250722)
(6.14755e-05 2.14742e-05 0.000183087)
(-0.000209741 7.45112e-05 0.000254105)
(-0.000652993 0.000142641 -0.000618478)
(-0.00071139 9.32349e-05 -0.000654505)
(1.82854e-05 3.33826e-05 0.000280093)
(-1.23629e-05 -1.1295e-05 0.000217103)
(1.76954e-05 -3.77609e-07 1.41488e-05)
(1.92209e-05 -3.93487e-07 1.535e-05)
(2.06794e-05 -1.38059e-07 1.46556e-05)
(2.02013e-05 -3.89772e-07 1.39764e-05)
(1.68918e-05 -2.63976e-07 1.34521e-05)
(-0.000193899 -3.71026e-06 -0.000177702)
(-0.000211341 1.51888e-05 -0.000191145)
(-8.09245e-05 1.23678e-05 -0.000383586)
(-6.3408e-05 -5.38938e-06 -0.000393225)
(-9.15772e-05 6.88961e-06 -9.13892e-05)
(-9.32284e-05 6.97596e-06 -8.65347e-05)
(-8.15885e-05 6.07692e-06 -7.84058e-05)
(-8.24527e-05 8.91173e-06 -7.71121e-05)
(-9.13557e-05 4.39272e-06 -8.25495e-05)
(1.41323e-05 7.03289e-08 -2.06907e-05)
(1.01253e-05 -2.72177e-07 -2.61339e-05)
(9.81001e-06 1.54813e-06 -1.19379e-06)
(1.14395e-05 -2.05954e-08 -7.86747e-07)
(1.33346e-05 2.24942e-07 -9.23587e-07)
(1.70977e-05 -1.03065e-05 1.18366e-05)
(1.71303e-05 -1.30775e-05 1.29049e-05)
(1.77247e-05 -4.68609e-05 1.08785e-05)
(2.04895e-05 -4.14646e-08 1.44998e-05)
(2.00242e-05 -4.18864e-07 1.33845e-05)
(1.89109e-05 -1.82609e-07 1.39646e-05)
(1.55265e-05 -4.95834e-05 1.00445e-05)
(-9.91204e-07 -6.3816e-05 2.38401e-06)
(-2.71413e-06 -6.18307e-05 1.84522e-06)
(-4.8966e-05 5.88249e-07 -4.4814e-05)
(1.87144e-05 -2.74497e-07 1.28025e-05)
(1.65734e-05 -1.59854e-07 1.34903e-05)
(1.67183e-05 -2.37117e-07 1.24106e-05)
(1.40262e-05 -4.24206e-08 1.1778e-05)
(1.12449e-05 -5.09857e-08 1.13657e-05)
(8.57831e-06 -5.9341e-08 1.12743e-05)
(3.26146e-06 2.14816e-07 9.77329e-06)
(7.71913e-07 1.3408e-07 9.63031e-06)
(-1.59702e-06 -3.72772e-09 9.56165e-06)
(-9.08796e-06 4.16162e-07 6.75195e-06)
(-1.04776e-05 2.11351e-07 6.03181e-06)
(-5.34281e-05 7.90878e-06 -4.74104e-05)
(-1.17101e-05 1.04595e-07 5.19966e-06)
(-2.08829e-06 -2.34722e-06 -2.69075e-06)
(-7.85502e-07 -3.89687e-06 -1.12651e-06)
(-1.23713e-05 -1.17782e-07 4.19394e-06)
(-1.27569e-05 -2.8259e-07 3.01483e-06)
(-1.14525e-05 5.06459e-07 1.9509e-06)
(-1.25779e-05 -4.32326e-07 1.80045e-06)
(-1.09504e-05 3.90085e-07 7.74712e-07)
(-1.16986e-05 -5.53393e-07 5.14092e-07)
(-1.02829e-05 3.21307e-07 -9.69533e-08)
(-9.74824e-06 -2.66586e-07 -8.32226e-07)
(-8.92249e-06 -1.52151e-06 -1.65858e-05)
(-8.46119e-06 -1.53826e-06 -1.71264e-05)
(-8.00103e-06 -1.80805e-06 -1.56148e-05)
(-0.000248272 -6.1702e-05 0.000477997)
(-0.000248151 -5.95096e-05 0.000432797)
(-1.64189e-05 -3.71742e-06 2.21622e-05)
(-2.87573e-05 -4.38276e-06 2.87426e-05)
(4.16084e-06 -1.74057e-06 1.49836e-05)
(8.29773e-06 -1.20506e-06 9.94122e-06)
(-3.36553e-08 -2.51275e-05 -7.1838e-07)
(2.16899e-06 -1.99835e-05 1.43438e-06)
(-0.000128489 3.82939e-05 0.000185421)
(-0.000110554 4.91625e-05 0.000156392)
(-0.000163079 -1.11535e-05 0.000279258)
(-0.000142739 -1.71621e-05 0.000240846)
(-0.000108168 -1.03118e-06 0.00018165)
(-9.45507e-05 -4.14253e-06 0.000156264)
(-0.000167033 8.25621e-05 0.000501191)
(-0.000233933 0.00014461 0.00070822)
(2.33276e-05 -1.75079e-05 0.000192137)
(1.65454e-05 -1.10569e-05 0.000161498)
(-9.45689e-05 2.51837e-05 0.000196213)
(-4.85927e-05 -7.95473e-07 0.000171079)
(-0.000193886 -3.71677e-05 0.000517402)
(-0.000196187 -1.80535e-05 0.000515191)
(-0.000194722 -3.1057e-05 0.000543831)
(-0.000214568 -6.33423e-06 0.000547995)
(-0.000565672 6.44548e-06 -0.000152679)
(-0.000648505 6.62045e-06 -0.00018521)
(-2.27721e-05 -7.96691e-05 9.96435e-06)
(-2.65661e-05 -7.89327e-05 1.19313e-05)
(-2.1863e-05 -4.3877e-05 6.54693e-05)
(-2.55876e-05 -5.36584e-05 8.18067e-05)
(-2.92926e-05 -5.25438e-05 6.60712e-05)
(-2.34818e-05 -4.04497e-05 5.37335e-05)
(-1.54799e-05 -8.6151e-05 8.48826e-06)
(-1.99067e-05 -9.83591e-05 6.53335e-06)
(-2.35453e-05 -8.34851e-05 8.8218e-06)
(-2.19266e-05 -8.64937e-05 9.21489e-06)
(-2.31369e-05 -0.000128638 -1.56102e-05)
(-1.99754e-05 -0.000111411 -1.41256e-05)
(-7.64776e-06 -5.66216e-05 -3.31676e-06)
(-9.88357e-06 -5.0537e-05 -4.75777e-06)
(-6.07733e-05 -3.04652e-05 9.42365e-05)
(-5.55645e-05 -3.22855e-05 8.90367e-05)
(5.15006e-05 6.40818e-06 -0.000239687)
(4.98572e-05 -7.48858e-07 -0.000226021)
(-0.000137503 -5.84551e-05 -1.24906e-05)
(-0.000136615 -6.54102e-05 -1.47045e-05)
(-0.000337334 -5.23811e-05 0.000124133)
(-0.000360071 -5.72963e-05 0.000111379)
(-0.000291921 -7.13491e-05 -2.60827e-05)
(-0.000284823 -5.91404e-05 -3.51787e-05)
(-0.000153022 0.000186081 0.000208109)
(-0.00014557 0.000232392 0.000191148)
(-0.000241388 -4.56671e-05 1.27796e-05)
(-0.000126454 -4.64877e-05 -1.78442e-05)
(-0.000203632 -7.99265e-05 7.37824e-05)
(-0.000175879 -7.83082e-05 6.25205e-05)
(-0.000221065 -5.3384e-05 5.7186e-05)
(-6.49504e-05 -4.18935e-05 -6.88216e-06)
(-3.92024e-05 -2.0907e-05 6.06567e-05)
(-3.23083e-05 -1.93835e-05 5.60047e-05)
(0.000745138 -0.000350909 0.000435021)
(0.000641571 -0.000290911 0.000327636)
(0.000678436 -0.000439779 0.00019543)
(0.000563342 -0.000295926 0.000207771)
(0.000591362 -0.000367306 0.00017687)
(0.000418669 -0.000372153 0.000175803)
(0.000522565 -0.000408777 0.000209842)
(0.000410223 -0.00034059 0.000172376)
(0.000622156 -0.000346857 0.000381114)
(0.000675979 -0.000419015 0.000385746)
(0.000636183 -0.000391082 0.000291769)
(0.000550575 -0.000445027 0.000164475)
(0.000632861 -0.000455038 0.000150852)
(0.000521672 -0.000377215 0.00018774)
(0.000291325 -0.000267565 0.000174804)
(0.000405279 -0.000368724 0.000189059)
(0.000325582 -0.000280395 0.000189181)
(0.000280833 -0.000262433 0.00019412)
(0.000150322 -0.000108785 0.000196937)
(3.02579e-05 2.98828e-06 0.000423859)
(5.57422e-06 9.73712e-06 0.000371284)
(3.69164e-05 3.31822e-05 0.000298037)
(3.15026e-05 3.48665e-05 0.000264633)
(6.92694e-05 4.5767e-05 0.000269871)
(-5.87152e-06 1.4515e-05 0.000311119)
(5.53408e-06 2.6635e-05 0.000279729)
(0.000208043 3.04655e-05 0.000346401)
(0.000239052 5.04114e-05 0.000385993)
(0.000141206 5.64309e-06 0.000227997)
(0.000168688 -1.09956e-06 0.000273234)
(0.000144397 -1.82055e-05 0.000237393)
(0.000130891 -4.51203e-06 0.000218447)
(0.000176587 6.90087e-06 0.00029631)
(0.000175034 1.89899e-05 0.000319368)
(0.000155535 3.7567e-06 0.000288193)
(0.000145648 -1.4613e-05 0.000266808)
(0.000124468 3.66157e-06 0.000214692)
(0.000126546 8.46277e-06 0.000201062)
(0.000118012 -1.54051e-05 0.000197004)
(0.000166705 1.48621e-05 0.000272399)
(0.000119894 4.19408e-07 0.000208675)
(0.000104086 -1.88428e-05 0.000202994)
(0.000187287 5.26727e-06 0.000471862)
(0.000180549 7.09211e-06 0.000474323)
(0.00013617 -8.02007e-06 0.000482546)
(5.89129e-05 -2.10975e-05 0.00046349)
(0.000208305 1.17016e-05 0.000439408)
(0.00014266 -2.2327e-05 0.000394023)
(9.51282e-05 -2.34388e-05 0.000359562)
(4.43466e-05 -3.44719e-05 0.000324345)
(4.96707e-05 -5.46e-05 0.000318399)
(-2.10394e-05 -3.45529e-05 0.000346326)
(-4.0671e-05 -5.76281e-05 0.000311487)
(-3.3608e-05 -1.40898e-05 0.000275782)
(-2.82333e-05 1.83087e-06 0.000231319)
(-6.12189e-05 -4.06237e-05 0.000229498)
(-5.09798e-05 -1.76298e-05 0.000199422)
(0.000157224 3.57397e-06 0.00029562)
(0.000153187 1.14837e-06 0.00030768)
(0.000116509 -2.40298e-05 0.000278144)
(5.92761e-05 -5.84788e-05 0.000310776)
(0.000121952 -1.3325e-05 0.000251041)
(4.20239e-05 -5.08596e-05 0.000208797)
(2.4702e-05 -4.99333e-05 0.000253796)
(-4.09587e-05 -6.58245e-05 0.000233961)
(-7.68086e-06 -6.68609e-05 0.000191344)
(-4.23316e-05 -6.39566e-05 0.000146658)
(-3.86989e-05 -7.44485e-05 0.000136915)
(-0.000107005 -8.96508e-05 0.000121791)
(-7.84575e-05 -5.89759e-05 0.000175765)
(-6.71431e-05 -3.32481e-05 0.000134691)
(-6.31933e-05 -5.19554e-05 0.000129609)
(0.000292626 2.10776e-05 0.000510895)
(0.000333374 4.78443e-05 0.000604572)
(0.000291192 -5.37699e-06 0.000517935)
(0.000291737 2.58621e-05 0.000515352)
(0.000502349 0.000145149 0.000463454)
(0.000553424 0.000151348 0.000573687)
(0.000413495 0.000146335 0.000485136)
(0.000452652 0.00013653 0.000571896)
(0.000370051 0.000140229 0.0005447)
(0.000368455 0.00012642 0.000578311)
(0.000511711 0.000212513 0.00064462)
(0.000432772 0.000185071 0.000458018)
(0.000505824 0.000196176 0.000591642)
(0.000331675 0.00013522 0.00049605)
(0.000439593 0.000168162 0.000626146)
(0.000565418 0.000189233 0.000446518)
(0.000463115 0.000184543 0.000500737)
(0.000473712 0.000184573 0.000512957)
(0.000482841 0.000166564 0.000645594)
(0.000531453 0.000220863 0.000591963)
(0.000579073 0.000242858 0.000545383)
(0.000519305 0.00022554 0.000501332)
(0.000512253 0.000189803 0.000609108)
(0.000500615 0.000189635 0.000637061)
(0.000553348 9.2046e-05 0.000555715)
(0.00069277 9.28537e-05 0.000588019)
(0.000542172 0.000120785 0.00055448)
(0.000418159 0.000127402 0.000397817)
(0.000517214 0.000118552 0.000501188)
(0.000522218 8.25486e-05 0.000439191)
(0.000389074 5.727e-05 0.000302717)
(0.000419921 0.000120342 0.000355177)
(0.000481989 0.000101244 0.000354991)
(0.000443771 0.000102355 0.000325698)
(0.000628074 -5.75506e-05 0.000514081)
(0.000650092 -8.98134e-05 0.000491322)
(0.000679011 -0.00022141 0.000433823)
(0.000493872 -9.89503e-05 0.000364929)
(0.000586496 -0.000182981 0.000292831)
(0.000466491 -3.59249e-05 0.000319032)
(0.000620179 -0.000199459 0.00028732)
(0.000380885 -5.08972e-05 0.000228737)
(0.000510631 -0.000151493 0.000187425)
(0.000672349 -0.000323364 0.000179913)
(0.000390472 4.61189e-05 0.000307922)
(0.000399436 7.99809e-05 0.00029736)
(0.000405246 -2.94742e-06 0.000213082)
(0.000398335 4.52071e-05 0.000213177)
(0.00053511 0.000194236 0.000386454)
(0.000516116 0.000191705 0.000511414)
(0.000543099 0.000194829 0.000461651)
(0.000554652 0.000158991 0.00034624)
(0.000627298 0.000210993 0.000374075)
(0.000605957 0.000253056 0.000513923)
(0.000498493 0.000195058 0.000520366)
(0.000544432 0.000198925 0.00055331)
(0.000574289 0.000227764 0.000332692)
(0.000539608 0.000198982 0.000491499)
(0.000537831 0.000207259 0.000503015)
(0.000619831 0.000247857 0.000612135)
(0.000631502 0.000249232 0.000463455)
(0.000469894 0.000124169 0.000290387)
(0.000666783 0.000204206 0.000314732)
(0.00049421 9.60672e-05 0.000261977)
(0.000660351 0.00015737 0.000250104)
(0.000613824 0.000227901 0.000322679)
(0.00060527 0.000197431 0.000387841)
(0.000822205 0.000334115 0.000421589)
(0.000641584 0.000223176 0.000273919)
(0.00059986 0.0001796 0.000289178)
(0.000870177 0.000326222 0.000315653)
(0.000639724 0.000307695 0.000400421)
(0.000676537 0.000256476 0.000530506)
(0.000616489 0.00022946 0.000564076)
(0.000744952 0.000292779 0.000480546)
(0.000762244 0.00029749 0.00044206)
(0.000387342 0.000147619 0.000532243)
(0.000398937 0.000153059 0.000541975)
(0.000274674 7.42077e-05 0.000520707)
(0.000407071 0.000146666 0.000610769)
(0.000463384 0.000130248 0.000697282)
(0.000438604 0.000130435 0.000647437)
(0.000391537 0.000133212 0.000539583)
(0.000418766 0.000146445 0.00057383)
(0.000413638 0.000141439 0.000639725)
(0.000373468 4.74189e-05 0.000685957)
(0.000325653 2.3895e-05 0.000628634)
(0.000388093 9.22514e-05 0.000675949)
(0.000352974 8.14157e-05 0.000619164)
(0.000312167 1.65793e-05 0.000531845)
(0.000426902 0.000145512 0.000576047)
(0.00045966 0.000113154 0.000670115)
(0.000394803 9.51341e-05 0.000619299)
(0.000388816 -2.92444e-05 0.000657324)
(0.000487419 0.000133121 0.000756628)
(0.000372705 5.07358e-05 0.000657888)
(0.000483301 0.000194502 0.000554438)
(0.000542599 0.000212693 0.000610983)
(0.000484327 0.000146512 0.000692843)
(0.000433243 0.000159357 0.000580856)
(0.00051129 0.00019552 0.000598846)
(0.000518096 0.000111022 0.000747103)
(0.000509571 0.000120267 0.000802396)
(0.000406033 1.8829e-05 0.000710808)
(0.000365376 1.52233e-05 0.000618371)
(0.000395282 4.02311e-05 0.00066333)
(0.000457079 9.70379e-05 0.000700617)
(0.000381855 4.42521e-05 0.000616442)
(0.000502169 0.000190096 0.000625414)
(0.000514681 7.89138e-05 0.000780383)
(0.000577317 0.000159378 0.000850592)
(0.000275082 -5.22921e-06 0.000486655)
(0.000289387 3.46853e-05 0.00050819)
(0.000348744 0.000112833 0.000550723)
(0.000358384 6.69502e-05 0.000608237)
(0.000334679 1.08347e-05 0.000556492)
(0.000427914 6.87407e-05 0.000689423)
(0.000318888 -2.93122e-05 0.000540673)
(0.000325524 1.05237e-05 0.000547719)
(0.000411552 0.000115567 0.000649151)
(0.000332475 3.50628e-05 0.000564322)
(0.000287437 2.5783e-05 0.000480966)
(0.000342199 -5.01264e-06 0.000563731)
(0.000294104 3.18872e-05 0.000491545)
(0.000329486 3.19197e-05 0.000541732)
(0.000399134 2.05799e-05 0.000650386)
(0.000305681 7.33073e-05 0.000523846)
(0.000299342 4.14397e-05 0.000499013)
(0.000384055 -6.32484e-05 0.00058523)
(0.000463594 9.71161e-05 0.000740834)
(0.000402204 -4.82677e-05 0.000688611)
(0.000503447 3.95322e-05 0.000826238)
(0.000383842 -1.53595e-05 0.000651408)
(0.000403642 -4.51977e-06 0.00068186)
(0.000516677 0.000127376 0.000760395)
(0.000406812 2.58331e-05 0.000654102)
(0.000465537 5.80992e-06 0.000745435)
(0.000491926 2.45632e-05 0.000804493)
(0.000488256 7.14938e-06 0.000779913)
(0.000397398 1.55088e-05 0.000634846)
(0.00044766 1.85492e-05 0.000709407)
(0.000393589 9.58976e-06 0.000621893)
(0.000446627 3.20009e-05 0.000702631)
(0.000560175 0.000183758 0.000696364)
(0.000580595 0.000225648 0.000621722)
(-2.11468e-05 -4.94145e-05 0.000161304)
(0.00056072 0.000146826 0.000780801)
(0.000498535 0.000143716 0.000672787)
(0.000689562 0.000287823 0.000627728)
(0.000593275 0.000248883 0.00057731)
(0.000642907 0.000243963 0.000662491)
(-2.54338e-05 -4.90759e-05 0.000160767)
(0.000572248 0.000193133 0.00072071)
(0.000553759 0.000208934 0.000643347)
(0.000615018 0.0002383 0.000683046)
(0.00056204 0.000167551 0.00077867)
(0.000608354 0.000158213 0.000907062)
(-2.30432e-05 -4.88273e-05 0.000157915)
(0.000455753 5.43165e-05 0.000734005)
(0.000417223 3.63119e-05 0.000701845)
(0.000446502 6.08116e-05 0.000708158)
(0.000518958 3.64908e-05 0.000798588)
(0.000442991 8.7463e-05 0.000689257)
(-2.55305e-05 -3.82739e-05 0.000160958)
(0.00056323 0.000222811 0.000665535)
(0.000589242 0.000109373 0.0008421)
(0.00065995 0.000198821 0.000909908)
(0.000666867 0.000248382 0.000717697)
(0.000783211 0.000312327 0.000587241)
(0.0008774 0.000371488 0.000541387)
(0.000635728 0.00020282 0.000792979)
(0.000618384 0.000210547 0.000695641)
(0.000666571 0.000310555 0.000546638)
(0.000708613 0.000287394 0.00059871)
(0.000676833 0.00025006 0.00070095)
(0.000695841 0.000259852 0.000756639)
(0.000770558 0.00032789 0.00073727)
(0.000664482 0.00023112 0.000799243)
(0.000660848 0.000167902 0.000905826)
(0.000549112 0.000146409 0.000750963)
(0.000601691 0.00012922 0.000938922)
(0.000488287 8.786e-05 0.000736707)
(0.000573347 8.02737e-05 0.000867348)
(0.000710794 0.000252265 0.000880924)
(0.000602767 0.000210842 0.000740971)
(0.00064447 0.000189287 0.000892836)
(0.000522587 9.50955e-05 0.000836755)
(0.000540287 0.000145835 0.000768137)
(0.000716287 0.000135221 0.000999822)
(0.000621051 0.000116709 0.000974445)
(0.000570309 3.93259e-05 0.0009198)
(0.00055671 1.44709e-05 0.000883746)
(0.000457238 9.77409e-06 0.000765935)
(0.000444273 3.27765e-05 0.000718744)
(0.000586763 9.88984e-05 0.000855494)
(0.000597332 0.000108257 0.000934745)
(0.000557557 9.17076e-06 0.000876724)
(0.000572061 3.0013e-05 0.000898806)
(0.000572382 -3.16949e-05 0.000888405)
(0.000548463 4.08686e-05 0.00083908)
(0.000648864 0.000126424 0.00094361)
(-3.15445e-05 -4.34074e-05 0.000169424)
(0.000482896 -7.07642e-06 0.000789598)
(0.00043861 3.54848e-05 0.000699541)
(0.000637771 0.000148859 0.000938721)
(0.000665961 0.000196687 0.000991908)
(0.000552129 1.13254e-05 0.000916147)
(0.000695276 7.32628e-05 0.00109481)
(0.000510128 4.39227e-05 0.000799772)
(0.000627741 3.2082e-05 0.000963225)
(0.000502071 7.5003e-05 0.000795467)
(0.000481897 4.40567e-06 0.000736889)
(0.00060721 -7.03332e-05 0.000901814)
(0.00067937 4.84534e-05 0.00107427)
(0.000675022 3.37526e-05 0.00106099)
(0.000284732 -3.18931e-05 0.000418517)
(0.000213706 2.53259e-05 0.000340543)
(0.000221842 2.65916e-05 0.00033984)
(0.000211797 1.71672e-05 0.00033496)
(0.000160623 3.80922e-05 0.000295683)
(0.000187899 4.40351e-05 0.000326303)
(0.000228854 2.99345e-05 0.000338901)
(0.000181569 5.43681e-05 0.000323152)
(0.000294322 3.87603e-05 0.00052275)
(0.000283058 5.32006e-05 0.000480879)
(-2.32451e-05 -4.20058e-05 0.0001544)
(-2.69368e-05 -4.40463e-05 0.000161351)
(-2.4912e-05 -4.06745e-05 0.000149386)
(-2.64044e-05 -3.69699e-05 0.000150264)
(0.000293223 4.6132e-05 0.000480465)
(0.000254771 7.9352e-05 0.000434522)
(0.000287591 3.76056e-05 0.000421829)
(0.000237723 5.9171e-05 0.000377638)
(0.000284974 2.67513e-05 0.000410394)
(0.000257807 5.55848e-05 0.000392359)
(-2.98792e-05 -3.63783e-05 0.000155746)
(0.000280867 3.25739e-05 0.000401701)
(-3.52352e-05 -2.90132e-05 0.000165884)
(-3.02849e-05 -3.47263e-05 0.000156776)
(0.000155976 6.60457e-05 0.000280379)
(0.000140998 6.25325e-05 0.000250854)
(0.000138879 5.58387e-05 0.000253549)
(-3.36437e-05 -3.45626e-05 0.000154798)
(-2.67143e-05 -3.85913e-05 0.000165797)
(-2.60909e-05 -4.21259e-05 0.000162263)
(-3.25269e-05 -3.392e-05 0.000176218)
(-3.41046e-05 -4.25787e-05 0.000183976)
(-2.99086e-05 -3.04637e-05 0.000167801)
(-2.87381e-05 -2.63394e-05 0.000160463)
(-3.4874e-05 -3.46541e-05 0.000160014)
(5.31401e-05 4.76313e-05 0.000241023)
(9.14513e-05 5.56838e-05 0.000269673)
(6.95692e-05 4.90316e-05 0.000226031)
(2.60405e-05 3.44878e-05 0.000236932)
(6.27782e-05 4.73103e-05 0.00023249)
(0.000114349 5.34113e-05 0.000238275)
(0.000143145 6.52664e-05 0.000278219)
(0.000182898 5.35422e-05 0.000252347)
(0.00015957 5.59934e-05 0.000245721)
(0.000151768 7.02264e-05 0.000270453)
(0.000101099 5.97163e-05 0.000229417)
(0.000135295 5.96281e-05 0.000232386)
(0.000199876 4.88894e-05 0.000289634)
(0.000186977 5.0719e-05 0.000289725)
(0.000238611 3.41454e-05 0.000321667)
(0.000184361 4.75798e-05 0.00030284)
(0.00021075 3.22955e-05 0.000305321)
(0.000182304 4.66432e-05 0.00029647)
(0.000235353 7.04841e-05 0.000344254)
(0.000243088 4.34337e-05 0.000306117)
(0.000204799 5.19913e-05 0.00029415)
(0.000192642 5.12565e-05 0.000288468)
(0.000250384 3.75776e-05 0.000361428)
(0.000236799 4.08547e-05 0.000316506)
(0.000268573 5.89356e-05 0.000390092)
(0.000194153 7.72489e-05 0.00031008)
(0.000254774 4.28226e-05 0.000328476)
(0.000229193 4.35889e-05 0.00028492)
(0.000260683 4.92277e-05 0.000330234)
(0.000225891 6.274e-05 0.000320647)
(0.000247225 6.26812e-05 0.000369368)
(0.000289288 3.2702e-05 0.00039227)
(0.00029205 1.92485e-05 0.00037343)
(0.000308229 5.29076e-05 0.000429879)
(0.00032154 5.62962e-05 0.000426148)
(0.000310391 2.60034e-05 0.0003648)
(0.000280527 2.56698e-05 0.000300363)
(0.000303133 4.54248e-05 0.000364048)
(0.000215813 4.94573e-05 0.000269522)
(0.000180555 4.49768e-05 0.000235374)
(0.000227216 5.84459e-05 0.000281881)
(-4.30954e-06 1.83054e-05 0.000194848)
(2.97791e-05 3.42644e-05 0.000191391)
(-2.73032e-05 -2.56001e-07 0.000153044)
(2.27741e-05 2.14278e-05 0.000149813)
(6.9288e-05 4.2917e-05 0.000192766)
(0.00013065 4.84784e-05 0.000209073)
(7.09523e-05 4.08257e-05 0.000174529)
(-6.74159e-05 -2.38356e-05 9.99348e-05)
(1.73503e-05 9.59113e-06 8.92014e-05)
(-8.7453e-05 -5.79765e-05 6.92427e-05)
(-7.28056e-05 -3.46891e-05 5.6696e-05)
(-2.06976e-05 -8.17791e-06 4.01943e-05)
(2.56207e-05 1.52619e-05 9.80961e-05)
(3.8682e-05 1.5448e-05 7.11089e-05)
(7.94617e-05 3.49257e-05 0.000129322)
(0.000122825 2.90161e-05 9.9368e-05)
(1.74572e-05 6.70662e-06 4.45122e-05)
(4.47876e-05 1.67797e-05 6.54266e-05)
(0.000120156 3.34119e-05 8.4536e-05)
(0.000296862 5.12977e-05 0.000343834)
(0.000375736 1.6694e-05 0.000420527)
(0.000322944 2.99435e-05 0.000371153)
(0.000374988 2.5881e-05 0.000413335)
(0.000185904 5.64637e-05 0.000243009)
(0.000276667 3.39427e-05 0.00029461)
(0.000231897 4.3803e-05 0.0002582)
(0.00026437 4.67758e-05 0.000294548)
(0.000182686 5.41098e-05 0.000217439)
(0.000228637 5.23808e-05 0.000271366)
(0.000313602 1.49573e-05 0.000269163)
(0.000382499 2.76248e-05 0.00035478)
(0.000399672 1.82892e-06 0.00039429)
(0.000364952 1.43816e-05 0.000331392)
(0.000329678 4.14692e-05 0.000359416)
(0.000181443 3.49935e-05 0.000128781)
(0.000212962 3.72192e-05 0.000173234)
(0.000281215 2.38375e-05 0.000227356)
(0.000248505 2.98727e-05 0.000163606)
(0.000252328 3.73695e-05 0.000200243)
(0.000172591 3.9599e-05 0.000127973)
(0.000231193 3.4726e-05 0.000164717)
(0.000345771 3.61793e-05 0.000298594)
(0.000381614 7.14571e-06 0.000316646)
(0.000439002 -7.63694e-06 0.000316674)
(0.000366691 1.4676e-05 0.00026178)
(0.000329723 1.88542e-05 0.00022786)
(0.000360282 1.20606e-05 0.000234939)
(0.000266437 4.99818e-05 0.000455998)
(0.0002737 3.03213e-05 0.000454258)
(0.00031169 -1.56762e-05 0.000487023)
(0.000299472 1.69927e-05 0.000472799)
(0.000247221 6.64175e-05 0.000424245)
(0.000280728 1.3963e-05 0.000430218)
(0.000395707 -2.06609e-05 0.000590425)
(0.0002737 3.31205e-05 0.000453361)
(0.000290464 1.95926e-05 0.000453305)
(0.000334449 2.98074e-05 0.000521504)
(0.000316161 1.29763e-05 0.000459605)
(0.00027926 3.28938e-05 0.000420626)
(0.000310527 3.37542e-05 0.000465633)
(0.000410588 -9.64004e-08 0.000591821)
(0.000439601 1.95375e-05 0.000723904)
(0.000324534 4.34074e-05 0.000518061)
(0.000366524 4.62469e-05 0.000593685)
(0.000370016 5.50406e-05 0.000620931)
(0.000386413 5.82118e-06 0.000591997)
(0.000510945 -6.27646e-05 0.000721057)
(0.00046016 -7.33895e-05 0.000629288)
(0.000370602 7.98014e-05 0.000621255)
(0.00037573 1.55916e-05 0.000576911)
(0.000319623 3.88343e-05 0.00048514)
(0.000360964 3.26669e-05 0.000538213)
(0.000340787 1.82802e-05 0.000478748)
(0.000285796 4.14228e-05 0.000420231)
(0.000328396 3.59893e-05 0.000471946)
(-3.64175e-05 -3.00723e-05 0.000161864)
(0.000412629 -2.35342e-05 0.000556907)
(0.000355895 2.77434e-05 0.000485334)
(0.000405507 4.1757e-05 0.000559946)
(0.000357398 2.38701e-05 0.000544696)
(0.00039669 6.94154e-06 0.000552223)
(0.0004602 -4.97394e-06 0.000626302)
(0.000371224 6.03568e-06 0.000482393)
(0.000334257 1.75647e-05 0.000408937)
(0.00034526 4.98012e-05 0.000487353)
(0.000583521 -2.76845e-05 0.000892467)
(0.00039451 3.66743e-05 0.000619726)
(-3.65507e-05 -2.58664e-05 0.000149534)
(0.000412556 1.91e-05 0.000614332)
(0.000471916 2.42536e-05 0.000710214)
(0.000558258 -2.52586e-05 0.000813142)
(0.00053181 -4.61187e-05 0.000724928)
(0.00037003 2.56934e-05 0.000536776)
(-4.16978e-05 -2.12942e-05 0.000161359)
(0.000431154 -6.20864e-05 0.000503035)
(0.000466453 1.60193e-05 0.000639758)
(0.00053255 -1.03696e-05 0.000783323)
(0.000444109 1.4528e-05 0.000650115)
(0.000502542 2.90286e-05 0.00072935)
(0.000543961 -4.42449e-06 0.000746465)
(0.000452389 5.75044e-05 0.000652305)
(0.000608177 -5.67198e-05 0.00079347)
(0.000496928 -1.24177e-05 0.000654844)
(0.000544398 1.07187e-05 0.000755012)
(0.000445936 4.03301e-05 0.000704264)
(0.000447626 -8.07976e-06 0.000664386)
(0.0005453 -3.45671e-05 0.000792051)
(0.00060519 -1.19115e-05 0.000917104)
(0.000575097 -7.41669e-05 0.000834133)
(0.000514331 9.94732e-05 0.000818632)
(0.000629192 -5.26137e-05 0.000955856)
(0.000580507 0.000123202 0.000931628)
(0.000540292 4.6668e-05 0.000849938)
(0.000523362 2.55149e-05 0.000794243)
(0.000622127 -3.61037e-05 0.000903436)
(0.000492068 7.70422e-06 0.000753273)
(0.000518763 -5.19661e-06 0.000742381)
(0.00060255 -3.72748e-05 0.000833973)
(0.000709902 -5.69808e-05 0.000955625)
(0.000518024 -8.21064e-06 0.000752805)
(0.000567026 -3.35201e-05 0.000734127)
(0.000625686 3.31957e-05 0.000877187)
(0.000376916 3.12057e-05 0.000474974)
(0.000363876 -1.48459e-05 0.000449538)
(0.000413867 -2.23245e-05 0.000464625)
(0.000422554 3.67765e-05 0.000562709)
(0.000497472 5.72317e-06 0.000638137)
(0.000435539 4.28164e-05 0.000554056)
(0.00042832 -8.62686e-06 0.000479828)
(0.000406701 9.08335e-06 0.000417848)
(0.000427062 1.95666e-05 0.000463535)
(0.000516029 -1.44766e-05 0.000573997)
(0.000470601 -1.70152e-05 0.000489704)
(0.000509526 -8.15069e-06 0.000553349)
(0.000558416 -3.67475e-05 0.000667921)
(-4.44291e-05 -1.70855e-05 0.000159587)
(0.000472965 -1.45409e-06 0.000584855)
(0.00052028 -2.82145e-06 0.000649689)
(0.000655335 -8.36664e-05 0.000805434)
(0.000557251 -2.34266e-05 0.000668425)
(0.000595155 2.92373e-06 0.000768043)
(-4.7736e-05 -1.23725e-05 0.000160901)
(0.00059975 -5.93127e-05 0.00066693)
(0.00056591 -8.24071e-05 0.000514788)
(-3.62477e-05 -3.45538e-05 0.000184493)
(0.000568825 2.7516e-06 0.000678765)
(0.000460488 -3.86424e-06 0.0004582)
(-4.03307e-05 -2.7212e-05 0.00018778)
(0.000445404 -1.36064e-05 0.000396079)
(0.000461447 1.17281e-05 0.000454505)
(-3.45047e-05 -3.4341e-05 0.000169597)
(0.000527035 8.83743e-07 0.000430665)
(-3.76468e-05 -1.6724e-05 0.000170854)
(-4.09841e-05 -2.87616e-05 0.000184483)
(0.000519759 -5.25523e-05 0.00046806)
(0.000532839 -6.11952e-05 0.000414184)
(-4.21806e-05 -2.7368e-05 0.000184283)
(0.000538042 9.82935e-06 0.000574777)
(0.000580443 -0.000430265 0.000172483)
(-4.57386e-05 -1.98782e-05 0.000179531)
(0.000607078 -0.000455835 8.22566e-05)
(0.000499326 -0.000390136 9.74637e-05)
(-4.47268e-05 -2.05149e-05 0.000183576)
(0.000449661 -0.000383083 0.000160152)
(0.000491847 -0.000414572 0.000121902)
(-4.86452e-05 -1.30827e-05 0.000192341)
(0.000382542 -0.000342804 0.000106431)
(0.000455118 -0.000354833 0.000205288)
(-3.73919e-05 -1.9681e-05 0.000165405)
(-3.38554e-05 -1.74221e-05 0.000152473)
(0.000480669 -0.000389208 8.87678e-05)
(-3.95135e-05 -2.38569e-05 0.000154932)
(-4.14083e-05 -1.82542e-05 0.000169406)
(0.000335754 -0.000310578 0.000160155)
(-3.98257e-05 -1.58517e-05 0.000153796)
(-4.37965e-05 -1.32316e-05 0.000167777)
(0.000382316 -0.000355254 0.000138662)
(-4.23576e-05 -1.26053e-05 0.000151952)
(0.000296192 -0.000276548 0.000132792)
(0.000213057 -0.00021744 0.000126028)
(0.000293526 -0.000282568 0.000160641)
(0.000230664 -0.000206615 0.000160052)
(0.000195463 -0.000196553 0.00012541)
(0.000249562 -0.000222795 0.000140769)
(0.000200774 -0.00018979 0.00013197)
(0.000327408 -0.000267281 0.000202662)
(0.000352061 -0.00030104 0.000133432)
(0.000390064 -0.000384222 6.56124e-05)
(0.000517209 -0.000435044 7.83798e-05)
(0.000377179 -0.000316659 0.000117741)
(0.000234177 -0.000236788 8.56641e-05)
(0.000373032 -0.000345997 0.000112556)
(0.000278489 -0.000238964 0.000146741)
(0.00026084 -0.000252854 0.000156441)
(0.000281641 -0.000231942 0.000174925)
(0.000323051 -0.000272596 0.000113242)
(0.000154094 -0.000180598 7.44982e-05)
(0.000221952 -0.000196647 0.000120541)
(0.000172954 -0.000155641 0.000122312)
(9.67925e-05 -9.05925e-05 0.000109656)
(0.000144528 -0.000130681 0.000135712)
(0.000123312 -8.75414e-05 0.000148896)
(0.000111843 -9.06971e-05 0.000145543)
(9.70952e-05 -4.80871e-05 0.000147316)
(7.46724e-05 -5.60517e-05 0.000113121)
(-2.56317e-05 -3.88495e-05 0.000145594)
(8.85844e-05 -5.27761e-05 0.000119279)
(8.18347e-05 -5.64561e-05 0.000104904)
(7.59666e-05 -3.98152e-05 0.000119152)
(6.98485e-05 -2.28629e-05 0.000107654)
(0.000193176 -0.000197909 0.00015043)
(-2.84641e-05 -3.55406e-05 0.000147968)
(0.000129389 -0.000130337 0.000114297)
(0.000181715 -0.000163124 0.000134588)
(0.000155396 -0.000130134 0.000142066)
(0.00013094 -0.000118365 0.000140273)