# Residuals   
# Time        	p             	Ux            	Uy            	Uz            
1             	1.000000e+00	1.000000e+00	1.000000e+00	1.000000e+00
2             	8.280594e-02	1.438269e-01	1.478187e-01	1.415361e-01
3             	4.966861e-02	8.553048e-02	7.264782e-02	8.242260e-02
4             	9.436516e-02	5.003275e-02	4.653562e-02	5.081751e-02
5             	1.026445e-01	3.960168e-02	3.639929e-02	4.012426e-02
6             	8.519227e-02	3.478339e-02	3.111577e-02	3.432980e-02
7             	6.814261e-02	3.174116e-02	2.763798e-02	3.060270e-02
8             	5.189656e-02	2.932053e-02	2.502425e-02	2.806730e-02
9             	4.194259e-02	2.731521e-02	2.297270e-02	2.616799e-02
10            	3.791788e-02	2.553868e-02	2.116098e-02	2.427793e-02
11            	3.474944e-02	2.403522e-02	1.955670e-02	2.252873e-02
12            	3.206619e-02	2.268594e-02	1.817371e-02	2.093058e-02
13            	2.990925e-02	2.144618e-02	1.700957e-02	1.949374e-02
14            	2.811277e-02	2.032476e-02	1.597410e-02	1.819800e-02
15            	2.684121e-02	1.931026e-02	1.505646e-02	1.700854e-02
16            	2.553341e-02	1.839283e-02	1.426526e-02	1.596238e-02
17            	2.428176e-02	1.752681e-02	1.355328e-02	1.506148e-02
18            	2.304507e-02	1.672475e-02	1.290208e-02	1.427321e-02
19            	2.192839e-02	1.595433e-02	1.232086e-02	1.358863e-02
20            	2.091135e-02	1.521314e-02	1.180167e-02	1.298148e-02
21            	1.999754e-02	1.449451e-02	1.132163e-02	1.241679e-02
22            	1.919998e-02	1.380700e-02	1.087357e-02	1.189314e-02
23            	1.844851e-02	1.315705e-02	1.045727e-02	1.140505e-02
24            	1.781881e-02	1.254146e-02	1.006379e-02	1.095529e-02
25            	1.732650e-02	1.196077e-02	9.688877e-03	1.053428e-02
26            	1.691790e-02	1.141520e-02	9.332834e-03	1.014126e-02
27            	1.653268e-02	1.090459e-02	8.989805e-03	9.776948e-03
28            	1.614392e-02	1.042639e-02	8.655396e-03	9.428251e-03
29            	1.570614e-02	9.971252e-03	8.335245e-03	9.099774e-03
30            	1.524405e-02	9.536066e-03	8.024996e-03	8.776632e-03
31            	1.478307e-02	9.120115e-03	7.725448e-03	8.459500e-03
32            	1.432647e-02	8.720350e-03	7.439976e-03	8.147698e-03
33            	1.384671e-02	8.344923e-03	7.163537e-03	7.839078e-03
34            	1.338312e-02	7.982334e-03	6.895227e-03	7.531674e-03
35            	1.297023e-02	7.638273e-03	6.639785e-03	7.236497e-03
36            	1.253937e-02	7.310967e-03	6.396368e-03	6.949106e-03
37            	1.215512e-02	6.992867e-03	6.163730e-03	6.666841e-03
38            	1.179039e-02	6.691241e-03	5.940720e-03	6.391139e-03
39            	1.143330e-02	6.405662e-03	5.726660e-03	6.124990e-03
40            	1.107096e-02	6.136880e-03	5.520018e-03	5.869744e-03
41            	1.070251e-02	5.882311e-03	5.321149e-03	5.627756e-03
42            	1.033597e-02	5.639863e-03	5.131215e-03	5.398402e-03
43            	9.958784e-03	5.409721e-03	4.950290e-03	5.183182e-03
44            	9.591213e-03	5.192415e-03	4.779468e-03	4.979311e-03
45            	9.233559e-03	4.986675e-03	4.617131e-03	4.785658e-03
46            	8.872206e-03	4.793919e-03	4.465618e-03	4.601227e-03
47            	8.520860e-03	4.611521e-03	4.322174e-03	4.424812e-03
48            	8.174645e-03	4.439593e-03	4.185232e-03	4.256368e-03
49            	7.843569e-03	4.277416e-03	4.055006e-03	4.096081e-03
50            	7.533624e-03	4.123544e-03	3.930674e-03	3.942430e-03
51            	7.250611e-03	3.978457e-03	3.811094e-03	3.796115e-03
52            	6.988298e-03	3.841399e-03	3.695959e-03	3.657026e-03
53            	6.735961e-03	3.711780e-03	3.583983e-03	3.523621e-03
54            	6.497406e-03	3.588306e-03	3.474906e-03	3.397068e-03
55            	6.271360e-03	3.471185e-03	3.368934e-03	3.275773e-03
56            	6.054758e-03	3.360039e-03	3.264876e-03	3.160095e-03
57            	5.848271e-03	3.253803e-03	3.163431e-03	3.050498e-03
58            	5.648450e-03	3.152203e-03	3.064305e-03	2.946390e-03
59            	5.458969e-03	3.055447e-03	2.968424e-03	2.846681e-03
60            	5.277729e-03	2.962767e-03	2.875357e-03	2.751233e-03
61            	5.104621e-03	2.874394e-03	2.785317e-03	2.659950e-03
62            	4.940010e-03	2.789698e-03	2.697987e-03	2.573201e-03
63            	4.780844e-03	2.708053e-03	2.613153e-03	2.490668e-03
64            	4.631274e-03	2.629562e-03	2.531059e-03	2.411803e-03
65            	4.487897e-03	2.554822e-03	2.451285e-03	2.336185e-03
66            	4.347909e-03	2.483116e-03	2.374130e-03	2.264078e-03
67            	4.210615e-03	2.414338e-03	2.299075e-03	2.195186e-03
68            	4.077618e-03	2.348398e-03	2.226346e-03	2.129341e-03
69            	3.948987e-03	2.285056e-03	2.155774e-03	2.065878e-03
70            	3.827062e-03	2.224680e-03	2.087564e-03	2.004812e-03
71            	3.711819e-03	2.166804e-03	2.021819e-03	1.946093e-03
72            	3.604041e-03	2.111279e-03	1.958299e-03	1.889661e-03
73            	3.502923e-03	2.058521e-03	1.897261e-03	1.835350e-03
74            	3.406025e-03	2.007821e-03	1.838457e-03	1.783247e-03
75            	3.315699e-03	1.958619e-03	1.781916e-03	1.733075e-03
76            	3.229622e-03	1.911395e-03	1.727723e-03	1.685239e-03
77            	3.145082e-03	1.866193e-03	1.675711e-03	1.639495e-03
78            	3.062433e-03	1.823087e-03	1.625895e-03	1.595657e-03
79            	2.981778e-03	1.781841e-03	1.578047e-03	1.553455e-03
80            	2.902171e-03	1.742251e-03	1.532166e-03	1.513005e-03
81            	2.824208e-03	1.704306e-03	1.488126e-03	1.474193e-03
82            	2.748305e-03	1.667652e-03	1.446051e-03	1.436833e-03
83            	2.673705e-03	1.632440e-03	1.405479e-03	1.400829e-03
84            	2.599965e-03	1.598320e-03	1.366497e-03	1.366219e-03
85            	2.527191e-03	1.565447e-03	1.329083e-03	1.333032e-03
86            	2.456311e-03	1.533396e-03	1.293160e-03	1.301194e-03
87            	2.388035e-03	1.502234e-03	1.258739e-03	1.270629e-03
88            	2.321821e-03	1.471681e-03	1.225724e-03	1.241322e-03
89            	2.258083e-03	1.442011e-03	1.194060e-03	1.213227e-03
90            	2.196597e-03	1.413309e-03	1.163677e-03	1.186305e-03
91            	2.137321e-03	1.385459e-03	1.134229e-03	1.160624e-03
92            	2.081362e-03	1.358378e-03	1.105980e-03	1.135740e-03
93            	2.028540e-03	1.331909e-03	1.078469e-03	1.111654e-03
94            	1.978059e-03	1.306142e-03	1.051791e-03	1.088261e-03
95            	1.929128e-03	1.281097e-03	1.025662e-03	1.065434e-03
96            	1.881476e-03	1.256515e-03	1.000103e-03	1.043024e-03
97            	1.834666e-03	1.232330e-03	9.750206e-04	1.020924e-03
98            	1.789005e-03	1.208526e-03	9.503588e-04	9.991610e-04
99            	1.743840e-03	1.185018e-03	9.261028e-04	9.777428e-04
100           	1.699302e-03	1.161866e-03	9.022813e-04	9.567576e-04
101           	1.655852e-03	1.138932e-03	8.788183e-04	9.361582e-04
102           	1.613748e-03	1.116131e-03	8.556589e-04	9.159621e-04
103           	1.572663e-03	1.093472e-03	8.328363e-04	8.961679e-04
104           	1.532775e-03	1.070862e-03	8.103973e-04	8.768408e-04
105           	1.493828e-03	1.048421e-03	7.883462e-04	8.580101e-04
106           	1.456134e-03	1.026296e-03	7.667644e-04	8.396462e-04
107           	1.419705e-03	1.004481e-03	7.456554e-04	8.217742e-04
108           	1.384630e-03	9.830336e-04	7.250402e-04	8.043149e-04
109           	1.350827e-03	9.620393e-04	7.049362e-04	7.871885e-04
110           	1.318272e-03	9.415294e-04	6.853385e-04	7.703782e-04
111           	1.286534e-03	9.214636e-04	6.662807e-04	7.538890e-04
112           	1.255848e-03	9.017919e-04	6.477057e-04	7.377028e-04
113           	1.226119e-03	8.825310e-04	6.296397e-04	7.217841e-04
114           	1.196996e-03	8.636482e-04	6.121065e-04	7.061459e-04
115           	1.168714e-03	8.451480e-04	5.950735e-04	6.907979e-04
116           	1.141445e-03	8.270721e-04	5.785644e-04	6.757973e-04
117           	1.114846e-03	8.094090e-04	5.625434e-04	6.611530e-04
118           	1.088911e-03	7.921648e-04	5.470097e-04	6.468957e-04
119           	1.063699e-03	7.753364e-04	5.319212e-04	6.330248e-04
120           	1.039072e-03	7.588892e-04	5.172556e-04	6.194598e-04
121           	1.014876e-03	7.428271e-04	5.029937e-04	6.061777e-04
122           	9.912334e-04	7.271361e-04	4.891414e-04	5.931330e-04
123           	9.680573e-04	7.117787e-04	4.757022e-04	5.803378e-04
124           	9.453451e-04	6.967507e-04	4.626507e-04	5.677678e-04
125           	9.231265e-04	6.820877e-04	4.499473e-04	5.554068e-04
126           	9.013376e-04	6.677656e-04	4.375889e-04	5.432448e-04
127           	8.800006e-04	6.537821e-04	4.255561e-04	5.313091e-04
128           	8.590622e-04	6.400945e-04	4.138563e-04	5.195995e-04
129           	8.385291e-04	6.266725e-04	4.024663e-04	5.081222e-04
130           	8.182800e-04	6.135199e-04	3.913644e-04	4.968629e-04
131           	7.984744e-04	6.006250e-04	3.805392e-04	4.858168e-04
132           	7.789805e-04	5.879671e-04	3.699933e-04	4.749733e-04
133           	7.596924e-04	5.755604e-04	3.597130e-04	4.643302e-04
134           	7.406647e-04	5.634212e-04	3.496926e-04	4.538804e-04
135           	7.219244e-04	5.515458e-04	3.399372e-04	4.436332e-04
136           	7.034856e-04	5.399158e-04	3.304419e-04	4.335841e-04
137           	6.853155e-04	5.285252e-04	3.211993e-04	4.237339e-04
138           	6.673881e-04	5.173090e-04	3.121658e-04	4.140647e-04
139           	6.497300e-04	5.063905e-04	3.034164e-04	4.046406e-04
140           	6.324422e-04	4.956218e-04	2.948831e-04	3.953895e-04
141           	6.154339e-04	4.851228e-04	2.866373e-04	3.863620e-04
142           	5.987624e-04	4.747695e-04	2.785884e-04	3.775048e-04
143           	5.824841e-04	4.646079e-04	2.707529e-04	3.688640e-04
144           	5.666393e-04	4.546557e-04	2.631317e-04	3.604274e-04
145           	5.511585e-04	4.449157e-04	2.557350e-04	3.521910e-04
146           	5.360961e-04	4.352945e-04	2.485044e-04	3.441219e-04
147           	5.214264e-04	4.258310e-04	2.414661e-04	3.362685e-04
148           	5.071507e-04	4.165610e-04	2.346496e-04	3.286194e-04
149           	4.932905e-04	4.074149e-04	2.279905e-04	3.211389e-04
150           	4.797882e-04	3.984355e-04	2.215068e-04	3.138526e-04
151           	4.666610e-04	3.896136e-04	2.151986e-04	3.067427e-04
152           	4.539199e-04	3.809464e-04	2.090689e-04	2.998072e-04
153           	4.415512e-04	3.724296e-04	2.031141e-04	2.930327e-04
154           	4.295475e-04	3.640556e-04	1.973267e-04	2.864170e-04
155           	4.179036e-04	3.558196e-04	1.917070e-04	2.799522e-04
156           	4.065842e-04	3.477257e-04	1.862499e-04	2.736369e-04
157           	3.955646e-04	3.397758e-04	1.809496e-04	2.674728e-04
158           	3.848488e-04	3.319658e-04	1.758047e-04	2.614450e-04
159           	3.743882e-04	3.243024e-04	1.708114e-04	2.555508e-04
160           	3.642036e-04	3.167740e-04	1.659695e-04	2.497895e-04
161           	3.542991e-04	3.093850e-04	1.612803e-04	2.441580e-04
162           	3.446945e-04	3.021381e-04	1.567394e-04	2.386487e-04
163           	3.353380e-04	2.950248e-04	1.523339e-04	2.332611e-04
164           	3.262385e-04	2.880404e-04	1.480589e-04	2.279930e-04
165           	3.173905e-04	2.811901e-04	1.439120e-04	2.228383e-04
166           	3.087881e-04	2.744713e-04	1.398887e-04	2.177949e-04
167           	3.004248e-04	2.678806e-04	1.359851e-04	2.128619e-04
168           	2.922789e-04	2.614178e-04	1.321974e-04	2.080346e-04
169           	2.843626e-04	2.550802e-04	1.285222e-04	2.033097e-04
170           	2.766674e-04	2.488698e-04	1.249594e-04	1.986874e-04
171           	2.691649e-04	2.427849e-04	1.215050e-04	1.941619e-04
172           	2.618634e-04	2.368231e-04	1.181548e-04	1.897309e-04
173           	2.547471e-04	2.309845e-04	1.149054e-04	1.853950e-04
174           	2.478245e-04	2.252679e-04	1.117569e-04	1.811521e-04
175           	2.411000e-04	2.196711e-04	1.087069e-04	1.770005e-04
176           	2.345581e-04	2.141956e-04	1.057514e-04	1.729376e-04
177           	2.281991e-04	2.088373e-04	1.028864e-04	1.689607e-04
178           	2.220250e-04	2.035964e-04	1.001112e-04	1.650689e-04
179           	2.160241e-04	1.984725e-04	9.742493e-05	1.612599e-04
180           	2.101952e-04	1.934670e-04	9.482829e-05	1.575306e-04
181           	2.045351e-04	1.885774e-04	9.231656e-05	1.538781e-04
182           	1.990346e-04	1.838049e-04	8.988590e-05	1.503005e-04
183           	1.936746e-04	1.791469e-04	8.753441e-05	1.467985e-04
184           	1.884627e-04	1.746008e-04	8.525858e-05	1.433690e-04
185           	1.833952e-04	1.701623e-04	8.305528e-05	1.400111e-04
186           	1.784750e-04	1.658301e-04	8.091958e-05	1.367220e-04
187           	1.736812e-04	1.616024e-04	7.884660e-05	1.335035e-04
188           	1.690237e-04	1.574778e-04	7.683910e-05	1.303523e-04
189           	1.644771e-04	1.534548e-04	7.489336e-05	1.272700e-04
190           	1.600666e-04	1.495321e-04	7.300640e-05	1.242527e-04
191           	1.557614e-04	1.457079e-04	7.117523e-05	1.213013e-04
192           	1.515747e-04	1.419778e-04	6.939841e-05	1.184137e-04
193           	1.474971e-04	1.383416e-04	6.767681e-05	1.155885e-04
194           	1.435270e-04	1.347985e-04	6.600704e-05	1.128247e-04
195           	1.396640e-04	1.313444e-04	6.438630e-05	1.101215e-04
196           	1.359088e-04	1.279762e-04	6.281291e-05	1.074786e-04
197           	1.322535e-04	1.246918e-04	6.128630e-05	1.048934e-04
198           	1.287028e-04	1.214901e-04	5.980332e-05	1.023650e-04
199           	1.252539e-04	1.183682e-04	5.836314e-05	9.989339e-05
200           	1.218970e-04	1.153246e-04	5.696675e-05	9.747500e-05
201           	1.186272e-04	1.123592e-04	5.561188e-05	9.510983e-05
202           	1.154428e-04	1.094687e-04	5.429608e-05	9.279656e-05
203           	1.123471e-04	1.066510e-04	5.301851e-05	9.053532e-05
204           	1.093335e-04	1.039045e-04	5.177661e-05	8.832490e-05
205           	1.064043e-04	1.012291e-04	5.057022e-05	8.616164e-05
206           	1.035488e-04	9.862319e-05	4.939388e-05	8.404743e-05
207           	1.007782e-04	9.608436e-05	4.824702e-05	8.198071e-05
208           	9.808625e-05	9.361160e-05	4.713063e-05	7.996190e-05
209           	9.547435e-05	9.120317e-05	4.604358e-05	7.798850e-05
210           	9.293596e-05	8.885795e-05	4.498032e-05	7.606069e-05
211           	9.047088e-05	8.657515e-05	4.393990e-05	7.417612e-05
212           	8.807394e-05	8.435356e-05	4.292166e-05	7.233467e-05
213           	8.574619e-05	8.219064e-05	4.192859e-05	7.053422e-05
214           	8.348458e-05	8.008331e-05	4.095760e-05	6.877540e-05
215           	8.128592e-05	7.803158e-05	4.000804e-05	6.705732e-05
216           	7.915055e-05	7.603397e-05	3.907944e-05	6.537767e-05
217           	7.707501e-05	7.408830e-05	3.817092e-05	6.373626e-05
218           	7.505598e-05	7.219200e-05	3.728220e-05	6.213232e-05
219           	7.309204e-05	7.034473e-05	3.641277e-05	6.056472e-05
220           	7.118137e-05	6.854485e-05	3.556223e-05	5.903328e-05
221           	6.932714e-05	6.679140e-05	3.473009e-05	5.753732e-05
222           	6.752529e-05	6.508425e-05	3.391584e-05	5.607586e-05
223           	6.577722e-05	6.342206e-05	3.311939e-05	5.464779e-05
224           	6.408196e-05	6.180247e-05	3.234012e-05	5.325248e-05
225           	6.243593e-05	6.022361e-05	3.157727e-05	5.188948e-05
226           	6.083603e-05	5.868553e-05	3.083076e-05	5.055831e-05
227           	5.927936e-05	5.718755e-05	3.010025e-05	4.925830e-05
228           	5.776753e-05	5.572913e-05	2.938533e-05	4.798899e-05
229           	5.629984e-05	5.430909e-05	2.868572e-05	4.674989e-05
230           	5.487620e-05	5.292563e-05	2.800149e-05	4.554060e-05
231           	5.349279e-05	5.157802e-05	2.733152e-05	4.436091e-05
232           	5.215338e-05	5.026607e-05	2.667556e-05	4.320977e-05
233           	5.085280e-05	4.898795e-05	2.603356e-05	4.208658e-05
234           	4.959036e-05	4.774306e-05	2.540569e-05	4.099079e-05
235           	4.836388e-05	4.653008e-05	2.479146e-05	3.992177e-05
236           	4.717151e-05	4.534863e-05	2.419028e-05	3.887933e-05
237           	4.601372e-05	4.419694e-05	2.360194e-05	3.786274e-05
238           	4.488939e-05	4.307454e-05	2.302610e-05	3.687128e-05
239           	4.379782e-05	4.198078e-05	2.246358e-05	3.590315e-05
240           	4.273671e-05	4.091450e-05	2.191341e-05	3.495929e-05
241           	4.170619e-05	3.987494e-05	2.137465e-05	3.403928e-05
242           	4.070368e-05	3.886190e-05	2.084600e-05	3.314309e-05
243           	3.972779e-05	3.787554e-05	2.032891e-05	3.226770e-05
244           	3.877746e-05	3.691334e-05	1.982318e-05	3.141409e-05
245           	3.785199e-05	3.597511e-05	1.932788e-05	3.058190e-05
246           	3.695260e-05	3.506046e-05	1.884301e-05	2.977072e-05
247           	3.607877e-05	3.416921e-05	1.836853e-05	2.897985e-05
248           	3.522783e-05	3.330092e-05	1.790452e-05	2.820913e-05
249           	3.439872e-05	3.245508e-05	1.745101e-05	2.745778e-05
250           	3.359145e-05	3.163118e-05	1.700770e-05	2.672525e-05
251           	3.280511e-05	3.082878e-05	1.657455e-05	2.601115e-05
252           	3.203862e-05	3.004711e-05	1.615148e-05	2.531500e-05
253           	3.129069e-05	2.928545e-05	1.573833e-05	2.463643e-05
254           	3.056081e-05	2.854380e-05	1.533470e-05	2.397500e-05
255           	2.984848e-05	2.782184e-05	1.494062e-05	2.333035e-05
256           	2.915356e-05	2.711864e-05	1.455593e-05	2.270220e-05
257           	2.847584e-05	2.643411e-05	1.418048e-05	2.208999e-05
258           	2.781422e-05	2.576772e-05	1.381428e-05	2.149348e-05
259           	2.716785e-05	2.511873e-05	1.345701e-05	2.091209e-05
260           	2.653577e-05	2.448662e-05	1.310871e-05	2.034543e-05
261           	2.591752e-05	2.387085e-05	1.276905e-05	1.979339e-05
262           	2.531290e-05	2.327070e-05	1.243761e-05	1.925551e-05
263           	2.472227e-05	2.268601e-05	1.211434e-05	1.873175e-05
264           	2.414520e-05	2.211609e-05	1.179923e-05	1.822180e-05
265           	2.358121e-05	2.156058e-05	1.149205e-05	1.772526e-05
266           	2.303011e-05	2.101894e-05	1.119263e-05	1.724187e-05
267           	2.249144e-05	2.049084e-05	1.090102e-05	1.677128e-05
268           	2.196544e-05	1.997578e-05	1.061717e-05	1.631321e-05
269           	2.145125e-05	1.947330e-05	1.034060e-05	1.586735e-05
270           	2.094919e-05	1.898311e-05	1.007105e-05	1.543341e-05
271           	2.045952e-05	1.850516e-05	9.808350e-06	1.501127e-05
272           	1.998143e-05	1.803909e-05	9.552492e-06	1.460062e-05
273           	1.951442e-05	1.758430e-05	9.303186e-06	1.420120e-05
274           	1.905774e-05	1.714072e-05	9.060343e-06	1.381252e-05
275           	1.861140e-05	1.670811e-05	8.823772e-06	1.343432e-05
276           	1.817520e-05	1.628604e-05	8.593428e-06	1.306634e-05
277           	1.774789e-05	1.587433e-05	8.369205e-06	1.270830e-05
278           	1.733102e-05	1.547214e-05	8.150411e-06	1.236000e-05
279           	1.692272e-05	1.508023e-05	7.937362e-06	1.202101e-05
280           	1.652426e-05	1.469766e-05	7.729254e-06	1.169115e-05
281           	1.613427e-05	1.432501e-05	7.526663e-06	1.137012e-05
282           	1.575395e-05	1.396141e-05	7.328905e-06	1.105788e-05
283           	1.538189e-05	1.360722e-05	7.136507e-06	1.075401e-05
284           	1.501932e-05	1.326164e-05	6.948691e-06	1.045854e-05
285           	1.466464e-05	1.292484e-05	6.765683e-06	1.017107e-05
286           	1.431827e-05	1.259613e-05	6.587209e-06	9.891528e-06
287           	1.397976e-05	1.227559e-05	6.413122e-06	9.619627e-06
288           	1.364962e-05	1.196285e-05	6.243142e-06	9.355281e-06
289           	1.332633e-05	1.165817e-05	6.077592e-06	9.098092e-06
290           	1.301052e-05	1.136095e-05	5.916207e-06	8.848071e-06
291           	1.270198e-05	1.107105e-05	5.758878e-06	8.605069e-06
292           	1.240042e-05	1.078833e-05	5.605452e-06	8.368812e-06
293           	1.210566e-05	1.051270e-05	5.455832e-06	8.139054e-06
294           	1.181748e-05	1.024402e-05	5.310039e-06	7.915596e-06
295           	1.153588e-05	9.982141e-06	5.167937e-06	7.698276e-06
296           	1.126128e-05	9.726824e-06	5.029415e-06	7.486941e-06
297           	1.099245e-05	9.478202e-06	4.894586e-06	7.281451e-06
298           	1.072970e-05	9.235573e-06	4.763149e-06	7.081739e-06
299           	1.047291e-05	8.998972e-06	4.635126e-06	6.887568e-06
300           	1.022198e-05	8.768224e-06	4.510424e-06	6.698742e-06
301           	9.976931e-06	8.543237e-06	4.388923e-06	6.515174e-06
302           	9.738100e-06	8.323776e-06	4.270453e-06	6.336681e-06
303           	9.504441e-06	8.109916e-06	4.155141e-06	6.163224e-06
304           	9.276203e-06	7.901241e-06	4.042777e-06	5.994674e-06
305           	9.053247e-06	7.697755e-06	3.933318e-06	5.830933e-06
306           	8.835914e-06	7.499371e-06	3.826718e-06	5.671758e-06
307           	8.623217e-06	7.306174e-06	3.722945e-06	5.517058e-06
308           	8.416054e-06	7.117754e-06	3.621795e-06	5.366726e-06
309           	8.213398e-06	6.934178e-06	3.523351e-06	5.220670e-06
310           	8.016015e-06	6.755002e-06	3.427428e-06	5.078752e-06
311           	7.822813e-06	6.580411e-06	3.334081e-06	4.940830e-06
312           	7.634506e-06	6.410050e-06	3.243131e-06	4.806751e-06
313           	7.450212e-06	6.244043e-06	3.154654e-06	4.676481e-06
314           	7.270706e-06	6.082079e-06	3.068476e-06	4.549853e-06
315           	7.095477e-06	5.924280e-06	2.984625e-06	4.426783e-06
316           	6.924492e-06	5.770508e-06	2.903008e-06	4.307171e-06
317           	6.757722e-06	5.620638e-06	2.823644e-06	4.190925e-06
318           	6.594911e-06	5.474625e-06	2.746406e-06	4.077982e-06
319           	6.435966e-06	5.332357e-06	2.671244e-06	3.968239e-06
320           	6.280778e-06	5.193705e-06	2.598085e-06	3.861628e-06
321           	6.129205e-06	5.058574e-06	2.526876e-06	3.758025e-06
322           	5.981274e-06	4.926885e-06	2.457576e-06	3.657351e-06
323           	5.836883e-06	4.798575e-06	2.390140e-06	3.559493e-06
324           	5.695892e-06	4.673543e-06	2.324516e-06	3.464363e-06
325           	5.558305e-06	4.551740e-06	2.260657e-06	3.371914e-06
326           	5.423953e-06	4.433048e-06	2.198545e-06	3.282058e-06
327           	5.292839e-06	4.317427e-06	2.138150e-06	3.194715e-06
328           	5.164923e-06	4.204810e-06	2.079393e-06	3.109804e-06
329           	5.040119e-06	4.095121e-06	2.022225e-06	3.027243e-06
330           	4.918317e-06	3.988273e-06	1.966652e-06	2.946957e-06
331           	4.799388e-06	3.884187e-06	1.912609e-06	2.868880e-06
332           	4.683430e-06	3.782821e-06	1.860053e-06	2.792985e-06
333           	4.570384e-06	3.684097e-06	1.808973e-06	2.719181e-06
334           	4.460165e-06	3.587943e-06	1.759310e-06	2.647405e-06
335           	4.352591e-06	3.494319e-06	1.711020e-06	2.577605e-06
336           	4.247592e-06	3.403139e-06	1.664089e-06	2.509719e-06
337           	4.145115e-06	3.314362e-06	1.618466e-06	2.443707e-06
338           	4.045175e-06	3.227880e-06	1.574127e-06	2.379502e-06
339           	3.947543e-06	3.143651e-06	1.531043e-06	2.317056e-06
340           	3.852148e-06	3.061604e-06	1.489177e-06	2.256318e-06
341           	3.759085e-06	2.981680e-06	1.448480e-06	2.197239e-06
342           	3.668255e-06	2.903841e-06	1.408907e-06	2.139756e-06
343           	3.579579e-06	2.828058e-06	1.370421e-06	2.083838e-06
344           	3.493033e-06	2.754252e-06	1.332992e-06	2.029436e-06
345           	3.408552e-06	2.682392e-06	1.296583e-06	1.976515e-06
346           	3.326088e-06	2.612440e-06	1.261178e-06	1.925026e-06
347           	3.245573e-06	2.544349e-06	1.226749e-06	1.874917e-06
348           	3.166980e-06	2.478067e-06	1.193265e-06	1.826160e-06
349           	3.090286e-06	2.413528e-06	1.160709e-06	1.778709e-06
350           	3.015463e-06	2.350689e-06	1.129030e-06	1.732537e-06
351           	2.942409e-06	2.289503e-06	1.098218e-06	1.687611e-06
352           	2.871055e-06	2.229934e-06	1.068252e-06	1.643896e-06
353           	2.801387e-06	2.171941e-06	1.039099e-06	1.601349e-06
354           	2.733333e-06	2.115483e-06	1.010747e-06	1.559946e-06
355           	2.666865e-06	2.060486e-06	9.831774e-07	1.519659e-06
356           	2.601977e-06	2.006931e-06	9.563663e-07	1.480448e-06
357           	2.538627e-06	1.954794e-06	9.302843e-07	1.442283e-06
358           	2.476779e-06	1.904031e-06	9.049218e-07	1.405147e-06
359           	2.416419e-06	1.854614e-06	8.802556e-07	1.369012e-06
360           	2.357471e-06	1.806485e-06	8.562661e-07	1.333847e-06
361           	2.299912e-06	1.759635e-06	8.329249e-07	1.299617e-06
362           	2.243712e-06	1.714017e-06	8.102190e-07	1.266302e-06
363           	2.188844e-06	1.669592e-06	7.881247e-07	1.233883e-06
364           	2.135262e-06	1.626326e-06	7.666320e-07	1.202325e-06
365           	2.082946e-06	1.584197e-06	7.457237e-07	1.171609e-06
366           	2.031902e-06	1.543189e-06	7.253788e-07	1.141707e-06
367           	1.982081e-06	1.503266e-06	7.055876e-07	1.112600e-06
368           	1.933458e-06	1.464401e-06	6.863462e-07	1.084263e-06
369           	1.885988e-06	1.426565e-06	6.676290e-07	1.056685e-06
370           	1.839650e-06	1.389737e-06	6.494260e-07	1.029855e-06
371           	1.794422e-06	1.353888e-06	6.317285e-07	1.003743e-06
372           	1.750271e-06	1.318988e-06	6.145133e-07	9.783290e-07
373           	1.707162e-06	1.285013e-06	5.977684e-07	9.535937e-07
374           	1.665071e-06	1.251946e-06	5.814761e-07	9.295199e-07
375           	1.623973e-06	1.219763e-06	5.656235e-07	9.060863e-07
376           	1.583851e-06	1.188433e-06	5.502001e-07	8.832779e-07
377           	1.544686e-06	1.157930e-06	5.351964e-07	8.610836e-07
378           	1.506447e-06	1.128253e-06	5.206081e-07	8.394807e-07
379           	1.469098e-06	1.099376e-06	5.064212e-07	8.184532e-07
380           	1.432650e-06	1.071281e-06	4.926258e-07	7.979816e-07
381           	1.397084e-06	1.043953e-06	4.792122e-07	7.780541e-07
382           	1.362367e-06	1.017361e-06	4.661768e-07	7.586524e-07
383           	1.328476e-06	9.914815e-07	4.535114e-07	7.397588e-07
384           	1.295408e-06	9.663035e-07	4.412030e-07	7.213642e-07
385           	1.263129e-06	9.418145e-07	4.292374e-07	7.034572e-07
386           	1.231625e-06	9.179788e-07	4.176096e-07	6.860290e-07
387           	1.200875e-06	8.947742e-07	4.063097e-07	6.690624e-07
388           	1.170885e-06	8.721932e-07	3.953273e-07	6.525485e-07
389           	1.141618e-06	8.502046e-07	3.846553e-07	6.364729e-07
390           	1.113069e-06	8.288117e-07	3.742902e-07	6.208209e-07
391           	1.085216e-06	8.079860e-07	3.642200e-07	6.055800e-07
392           	1.058039e-06	7.877145e-07	3.544389e-07	5.907406e-07
393           	1.031531e-06	7.679723e-07	3.449405e-07	5.762919e-07
394           	1.005665e-06	7.487570e-07	3.357108e-07	5.622200e-07
395           	9.804090e-07	7.300709e-07	3.267623e-07	5.485132e-07
