# Residuals   
# Time        	p             	Ux            	Uy            	Uz            
0.005         	1.000000e+00	1.000000e+00	1.000000e+00	1.000000e+00
0.01          	1.752792e-02	1.812502e-01	2.549769e-01	2.612489e-01
0.015         	4.688000e-02	4.937758e-02	8.547806e-02	6.705228e-02
0.02          	5.841187e-02	2.602726e-02	4.382593e-02	2.569665e-02
0.025         	5.874016e-02	1.515154e-02	2.664780e-02	1.688050e-02
0.03          	3.874287e-02	1.184055e-02	2.069405e-02	1.424435e-02
0.035         	2.708927e-02	1.008199e-02	1.696739e-02	1.288323e-02
0.04          	1.634390e-02	9.218876e-03	1.502144e-02	1.240650e-02
0.045         	1.336802e-02	8.302258e-03	1.315553e-02	1.139823e-02
0.05          	1.130280e-02	7.716817e-03	1.206915e-02	1.058728e-02
0.055         	9.909001e-03	7.228574e-03	1.123900e-02	9.853149e-03
0.06          	9.256753e-03	6.759117e-03	1.058266e-02	9.120730e-03
0.065         	8.726593e-03	6.391787e-03	9.921032e-03	8.499901e-03
0.07          	8.307147e-03	6.075246e-03	9.359291e-03	8.002820e-03
0.075         	7.943533e-03	5.765852e-03	8.888271e-03	7.547512e-03
0.08          	7.856847e-03	5.474363e-03	8.411457e-03	7.081387e-03
0.085         	7.286672e-03	5.277336e-03	8.098596e-03	6.693723e-03
0.09          	7.218651e-03	5.023455e-03	7.661170e-03	6.336282e-03
0.095         	6.623752e-03	4.847026e-03	7.352074e-03	6.024287e-03
0.1           	6.577019e-03	4.630589e-03	6.986152e-03	5.721680e-03
0.105         	6.059159e-03	4.498335e-03	6.762466e-03	5.451483e-03
0.11          	6.035026e-03	4.303801e-03	6.456560e-03	5.192256e-03
0.115         	5.552040e-03	4.195294e-03	6.271589e-03	4.958604e-03
0.12          	5.521238e-03	4.018961e-03	5.996700e-03	4.733687e-03
0.125         	5.095880e-03	3.922610e-03	5.823101e-03	4.527758e-03
0.13          	5.065207e-03	3.764138e-03	5.567855e-03	4.327597e-03
0.135         	4.679535e-03	3.687248e-03	5.400006e-03	4.143009e-03
0.14          	4.654097e-03	3.539892e-03	5.159409e-03	3.966110e-03
0.145         	4.290569e-03	3.474065e-03	4.994408e-03	3.801128e-03
0.15          	4.258543e-03	3.340707e-03	4.762269e-03	3.644883e-03
0.155         	3.933791e-03	3.276687e-03	4.605799e-03	3.498923e-03
0.16          	3.901670e-03	3.157202e-03	4.390411e-03	3.358470e-03
0.165         	3.604037e-03	3.101006e-03	4.253272e-03	3.227720e-03
0.17          	3.580198e-03	2.993767e-03	4.055592e-03	3.102395e-03
0.175         	3.308249e-03	2.942664e-03	3.935689e-03	2.987433e-03
0.18          	3.293390e-03	2.845358e-03	3.757284e-03	2.876073e-03
0.185         	3.044455e-03	2.799236e-03	3.651435e-03	2.774947e-03
0.19          	3.040515e-03	2.710300e-03	3.492617e-03	2.675394e-03
0.195         	2.933665e-03	2.656526e-03	3.372203e-03	2.581364e-03
0.2           	2.704114e-03	2.610266e-03	3.293877e-03	2.498529e-03
0.205         	2.714819e-03	2.529760e-03	3.145035e-03	2.410738e-03
0.21          	2.629052e-03	2.485677e-03	3.035779e-03	2.328525e-03
0.215         	2.515545e-03	2.442944e-03	2.940870e-03	2.250365e-03
0.22          	2.415053e-03	2.395160e-03	2.847135e-03	2.177811e-03
0.225         	2.332104e-03	2.346705e-03	2.752958e-03	2.108517e-03
0.23          	2.259635e-03	2.301884e-03	2.661344e-03	2.040863e-03
0.235         	2.189481e-03	2.261158e-03	2.574682e-03	1.974882e-03
0.24          	2.118629e-03	2.223080e-03	2.492299e-03	1.910897e-03
0.245         	2.048794e-03	2.186128e-03	2.412831e-03	1.849337e-03
0.25          	1.981792e-03	2.150017e-03	2.335135e-03	1.790133e-03
0.255         	1.918547e-03	2.113858e-03	2.259273e-03	1.733305e-03
0.26          	1.857170e-03	2.078367e-03	2.184944e-03	1.678572e-03
0.265         	1.798758e-03	2.042780e-03	2.112140e-03	1.625681e-03
0.27          	1.743008e-03	2.007230e-03	2.041182e-03	1.574675e-03
0.275         	1.689628e-03	1.971892e-03	1.972338e-03	1.525359e-03
0.28          	1.638116e-03	1.936090e-03	1.905666e-03	1.477553e-03
0.285         	1.588470e-03	1.899983e-03	1.841467e-03	1.431239e-03
0.29          	1.540571e-03	1.863581e-03	1.779573e-03	1.386545e-03
0.295         	1.494633e-03	1.826687e-03	1.719838e-03	1.343211e-03
0.3           	1.450370e-03	1.789169e-03	1.662063e-03	1.301095e-03
0.305         	1.407691e-03	1.751394e-03	1.606362e-03	1.260071e-03
0.31          	1.366443e-03	1.712953e-03	1.552738e-03	1.220139e-03
0.315         	1.326297e-03	1.673851e-03	1.500979e-03	1.181224e-03
0.32          	1.287126e-03	1.634180e-03	1.451012e-03	1.143147e-03
0.325         	1.248995e-03	1.594076e-03	1.402483e-03	1.105734e-03
0.33          	1.211813e-03	1.553617e-03	1.355513e-03	1.069146e-03
0.335         	1.175501e-03	1.512575e-03	1.309771e-03	1.033248e-03
0.34          	1.139997e-03	1.470992e-03	1.265251e-03	9.978937e-04
0.345         	1.105150e-03	1.429188e-03	1.221799e-03	9.631136e-04
0.35          	1.071019e-03	1.387135e-03	1.179233e-03	9.288422e-04
0.355         	1.037425e-03	1.344802e-03	1.137679e-03	8.952029e-04
0.36          	1.004340e-03	1.302222e-03	1.096910e-03	8.621454e-04
0.365         	9.717086e-04	1.259412e-03	1.056918e-03	8.296186e-04
0.37          	9.395379e-04	1.216594e-03	1.017596e-03	7.975897e-04
0.375         	9.077357e-04	1.173884e-03	9.789160e-04	7.660667e-04
0.38          	8.762309e-04	1.131296e-03	9.409374e-04	7.350204e-04
0.385         	8.450788e-04	1.089032e-03	9.036685e-04	7.045007e-04
0.39          	8.142927e-04	1.047129e-03	8.671865e-04	6.745911e-04
0.395         	7.839666e-04	1.005680e-03	8.314928e-04	6.452938e-04
0.4           	7.541224e-04	9.647889e-04	7.966293e-04	6.166242e-04
0.405         	7.247263e-04	9.246026e-04	7.627363e-04	5.886098e-04
0.41          	6.957273e-04	8.852572e-04	7.298621e-04	5.612509e-04
0.415         	6.672940e-04	8.468408e-04	6.981509e-04	5.346201e-04
0.42          	6.394930e-04	8.094801e-04	6.676951e-04	5.087007e-04
0.425         	6.124149e-04	7.731814e-04	6.384200e-04	4.835347e-04
0.43          	5.861794e-04	7.379179e-04	6.104597e-04	4.591426e-04
0.435         	5.609140e-04	7.036096e-04	5.837746e-04	4.355613e-04
0.44          	5.365410e-04	6.703328e-04	5.584680e-04	4.128017e-04
0.445         	5.130475e-04	6.380716e-04	5.343289e-04	3.908550e-04
0.45          	4.903894e-04	6.067844e-04	5.114070e-04	3.697388e-04
0.455         	4.686981e-04	5.764650e-04	4.897292e-04	3.494577e-04
0.46          	4.478741e-04	5.471663e-04	4.690239e-04	3.300221e-04
0.465         	4.279350e-04	5.187675e-04	4.492080e-04	3.114034e-04
0.47          	4.088172e-04	4.912756e-04	4.302453e-04	2.935884e-04
0.475         	3.904949e-04	4.646761e-04	4.119346e-04	2.765635e-04
0.48          	3.729534e-04	4.389370e-04	3.941643e-04	2.602990e-04
0.485         	3.560825e-04	4.140811e-04	3.769351e-04	2.447832e-04
0.49          	3.398310e-04	3.900948e-04	3.601413e-04	2.299981e-04
0.495         	3.241223e-04	3.669796e-04	3.438405e-04	2.159014e-04
0.5           	3.088803e-04	3.446509e-04	3.278847e-04	2.024628e-04
0.505         	2.940054e-04	3.231220e-04	3.123040e-04	1.896553e-04
0.51          	2.795176e-04	3.024305e-04	2.970575e-04	1.774397e-04
0.515         	2.654041e-04	2.825465e-04	2.821189e-04	1.657951e-04
0.52          	2.516178e-04	2.634628e-04	2.674269e-04	1.547031e-04
0.525         	2.381541e-04	2.452074e-04	2.529790e-04	1.441545e-04
0.53          	2.249842e-04	2.277995e-04	2.387598e-04	1.341413e-04
0.535         	2.120696e-04	2.112514e-04	2.247264e-04	1.246547e-04
0.54          	1.994575e-04	1.955674e-04	2.108916e-04	1.156821e-04
0.545         	1.871778e-04	1.807835e-04	1.973847e-04	1.072073e-04
0.55          	1.752451e-04	1.668953e-04	1.842651e-04	9.922377e-05
0.555         	1.636856e-04	1.538919e-04	1.715580e-04	9.172275e-05
0.56          	1.525704e-04	1.417746e-04	1.593392e-04	8.468780e-05
0.565         	1.419542e-04	1.305297e-04	1.477424e-04	7.811639e-05
0.57          	1.318484e-04	1.201425e-04	1.368478e-04	7.199862e-05
0.575         	1.222456e-04	1.105831e-04	1.266359e-04	6.632674e-05
0.58          	1.131488e-04	1.018165e-04	1.171540e-04	6.108691e-05
0.585         	1.045732e-04	9.383599e-05	1.084395e-04	5.626742e-05
0.59          	9.652965e-05	8.657397e-05	1.004754e-04	5.185326e-05
0.595         	8.901342e-05	7.997554e-05	9.325714e-05	4.782946e-05
0.6           	8.199079e-05	7.397744e-05	8.673691e-05	4.418532e-05
0.605         	7.546587e-05	6.852837e-05	8.085832e-05	4.090729e-05
0.61          	6.943345e-05	6.358870e-05	7.555135e-05	3.796690e-05
0.615         	6.387401e-05	5.913544e-05	7.078096e-05	3.534145e-05
0.62          	5.879546e-05	5.514450e-05	6.647217e-05	3.300947e-05
0.625         	5.415392e-05	5.156561e-05	6.255515e-05	3.094981e-05
0.63          	4.993485e-05	4.827257e-05	5.895316e-05	2.911132e-05
0.635         	4.615336e-05	4.516132e-05	5.555976e-05	2.742741e-05
0.64          	4.274187e-05	4.233978e-05	5.236546e-05	2.588280e-05
0.645         	3.962599e-05	3.983278e-05	4.941669e-05	2.448222e-05
0.65          	3.678991e-05	3.758665e-05	4.670846e-05	2.322186e-05
0.655         	3.422491e-05	3.553432e-05	4.419716e-05	2.208818e-05
0.66          	3.193389e-05	3.363636e-05	4.184843e-05	2.105426e-05
0.665         	2.988354e-05	3.187077e-05	3.962741e-05	2.010410e-05
0.67          	2.803586e-05	3.021932e-05	3.752636e-05	1.922288e-05
0.675         	2.637424e-05	2.867412e-05	3.551903e-05	1.840012e-05
0.68          	2.487598e-05	2.722310e-05	3.358948e-05	1.762768e-05
0.685         	2.352047e-05	2.585503e-05	3.174814e-05	1.690173e-05
0.69          	2.227786e-05	2.456214e-05	2.998613e-05	1.622066e-05
0.695         	2.112901e-05	2.333964e-05	2.829737e-05	1.557976e-05
0.7           	2.006372e-05	2.218281e-05	2.668504e-05	1.497784e-05
0.705         	1.906996e-05	2.108905e-05	2.514736e-05	1.441045e-05
0.71          	1.813712e-05	2.005519e-05	2.368781e-05	1.387034e-05
0.715         	1.725450e-05	1.907735e-05	2.230316e-05	1.335270e-05
0.72          	1.641463e-05	1.815059e-05	2.099479e-05	1.285393e-05
0.725         	1.561375e-05	1.727072e-05	1.976334e-05	1.237078e-05
0.73          	1.484699e-05	1.643637e-05	1.860911e-05	1.190253e-05
0.735         	1.411303e-05	1.564669e-05	1.753018e-05	1.144873e-05
0.74          	1.340961e-05	1.490197e-05	1.651729e-05	1.101045e-05
0.745         	1.274003e-05	1.420266e-05	1.556329e-05	1.058842e-05
0.75          	1.210208e-05	1.354573e-05	1.466460e-05	1.018087e-05
0.755         	1.149389e-05	1.292571e-05	1.381679e-05	9.786584e-06
0.76          	1.091605e-05	1.233928e-05	1.301360e-05	9.404413e-06
0.765         	1.036531e-05	1.178450e-05	1.225493e-05	9.035505e-06
0.77          	9.842218e-06	1.125810e-05	1.153768e-05	8.680047e-06
0.775         	9.347469e-06	1.075511e-05	1.085943e-05	8.336975e-06
0.78          	8.875295e-06	1.028350e-05	1.022567e-05	8.008374e-06
0.785         	8.425270e-06	9.842048e-06	9.637018e-06	7.695879e-06
0.79          	8.001898e-06	9.416151e-06	9.083022e-06	7.397322e-06
0.795         	7.601873e-06	9.013626e-06	8.564752e-06	7.112024e-06
0.8           	7.222154e-06	8.634426e-06	8.083643e-06	6.839388e-06
0.805         	6.862483e-06	8.275267e-06	7.636710e-06	6.578745e-06
0.81          	6.521371e-06	7.934190e-06	7.221919e-06	6.329699e-06
0.815         	6.198934e-06	7.609724e-06	6.838433e-06	6.091830e-06
0.82          	5.893927e-06	7.301819e-06	6.484149e-06	5.864865e-06
0.825         	5.606089e-06	7.010019e-06	6.155167e-06	5.648281e-06
0.83          	5.334601e-06	6.733796e-06	5.848394e-06	5.441502e-06
0.835         	5.079803e-06	6.471511e-06	5.561675e-06	5.243581e-06
0.84          	4.840447e-06	6.222762e-06	5.294253e-06	5.054302e-06
0.845         	4.615618e-06	5.985824e-06	5.044131e-06	4.873192e-06
0.85          	4.404163e-06	5.760053e-06	4.809850e-06	4.699918e-06
0.855         	4.205128e-06	5.545072e-06	4.590871e-06	4.534102e-06
0.86          	4.018371e-06	5.340358e-06	4.386816e-06	4.375402e-06
0.865         	3.843193e-06	5.145197e-06	4.196233e-06	4.223383e-06
0.87          	3.678783e-06	4.959092e-06	4.018045e-06	4.077512e-06
0.875         	3.524708e-06	4.781342e-06	3.851133e-06	3.937403e-06
0.88          	3.379993e-06	4.611347e-06	3.695043e-06	3.802817e-06
0.885         	3.244085e-06	4.448314e-06	3.548200e-06	3.673216e-06
0.89          	3.116101e-06	4.292432e-06	3.410313e-06	3.548392e-06
0.895         	2.995077e-06	4.143194e-06	3.280709e-06	3.428161e-06
0.9           	2.881184e-06	4.000075e-06	3.158369e-06	3.312098e-06
0.905         	2.773148e-06	3.863085e-06	3.043258e-06	3.200244e-06
0.91          	2.670935e-06	3.731250e-06	2.934447e-06	3.092369e-06
0.915         	2.573782e-06	3.604471e-06	2.831203e-06	2.988290e-06
0.92          	2.481256e-06	3.482547e-06	2.732938e-06	2.887851e-06
0.925         	2.392906e-06	3.365187e-06	2.639281e-06	2.791039e-06
0.93          	2.308890e-06	3.251891e-06	2.548936e-06	2.697394e-06
0.935         	2.228151e-06	3.143117e-06	2.462787e-06	2.607145e-06
0.94          	2.151050e-06	3.037849e-06	2.379548e-06	2.519937e-06
0.945         	2.077376e-06	2.936435e-06	2.299159e-06	2.435599e-06
0.95          	2.006283e-06	2.838806e-06	2.222125e-06	2.354305e-06
0.955         	1.938163e-06	2.744190e-06	2.147389e-06	2.275743e-06
0.96          	1.872635e-06	2.652983e-06	2.075243e-06	2.199847e-06
0.965         	1.809518e-06	2.564950e-06	2.005587e-06	2.126525e-06
0.97          	1.748712e-06	2.479919e-06	1.938269e-06	2.055689e-06
0.975         	1.690118e-06	2.397762e-06	1.873157e-06	1.987253e-06
0.98          	1.633625e-06	2.318377e-06	1.810197e-06	1.921131e-06
0.985         	1.579130e-06	2.241654e-06	1.749318e-06	1.857241e-06
0.99          	1.526547e-06	2.167499e-06	1.690451e-06	1.795507e-06
0.995         	1.475795e-06	2.095821e-06	1.633546e-06	1.735851e-06
1             	1.426785e-06	2.026532e-06	1.578548e-06	1.678201e-06
1.005         	1.379457e-06	1.959547e-06	1.525406e-06	1.622485e-06
1.01          	1.333733e-06	1.894788e-06	1.474063e-06	1.568637e-06
1.015         	1.289554e-06	1.832175e-06	1.424466e-06	1.516593e-06
1.02          	1.246863e-06	1.771639e-06	1.376563e-06	1.466289e-06
1.025         	1.205604e-06	1.713109e-06	1.330298e-06	1.417664e-06
1.03          	1.165733e-06	1.656520e-06	1.285621e-06	1.370662e-06
1.035         	1.127199e-06	1.601805e-06	1.242485e-06	1.325228e-06
1.04          	1.089955e-06	1.548901e-06	1.200839e-06	1.281308e-06
1.045         	1.053954e-06	1.497747e-06	1.160636e-06	1.238851e-06
1.05          	1.019151e-06	1.448285e-06	1.121828e-06	1.197808e-06
1.055         	9.855030e-07	1.400459e-06	1.084365e-06	1.158130e-06
1.06          	9.529706e-07	1.354212e-06	1.048199e-06	1.119771e-06
1.065         	9.215135e-07	1.309491e-06	1.013284e-06	1.082687e-06
1.07          	8.910953e-07	1.266246e-06	9.795745e-07	1.046835e-06
1.075         	8.616817e-07	1.224426e-06	9.470246e-07	1.012173e-06
1.08          	8.332389e-07	1.183985e-06	9.155906e-07	9.786602e-07
1.085         	8.057333e-07	1.144877e-06	8.852309e-07	9.462592e-07
1.09          	7.791327e-07	1.107056e-06	8.559044e-07	9.149319e-07
1.095         	7.534074e-07	1.070481e-06	8.275716e-07	8.846420e-07
1.1           	7.285276e-07	1.035109e-06	8.001959e-07	8.553551e-07
1.105         	7.044657e-07	1.000902e-06	7.737402e-07	8.270373e-07
1.11          	6.811948e-07	9.678200e-07	7.481710e-07	7.996568e-07
