# Residuals   
# Time        	p             	Ux            	Uy            	Uz            
0.005         	1.000000e+00	1.000000e+00	1.000000e+00	1.000000e+00
0.01          	9.941199e-01	5.259350e-01	5.637259e-01	5.091599e-01
0.015         	2.122471e-01	4.000890e-01	5.094295e-01	3.777625e-01
0.02          	1.375880e-01	2.812013e-01	4.579993e-01	2.707230e-01
0.025         	1.198202e-01	1.874429e-01	3.864668e-01	1.897442e-01
0.03          	1.028544e-01	1.275265e-01	3.041747e-01	1.395617e-01
0.035         	8.917114e-02	9.203832e-02	2.394819e-01	1.073486e-01
0.04          	7.785540e-02	7.136308e-02	1.944411e-01	8.626205e-02
0.045         	6.906284e-02	5.828584e-02	1.632207e-01	7.192041e-02
0.05          	6.377779e-02	4.971284e-02	1.418097e-01	6.209550e-02
0.055         	6.123584e-02	4.565048e-02	1.281620e-01	5.621923e-02
0.06          	5.907516e-02	5.513789e-02	1.419123e-01	6.323109e-02
0.065         	5.532266e-02	5.024611e-02	1.295071e-01	5.815895e-02
0.07          	5.158815e-02	4.210928e-02	1.060508e-01	4.789594e-02
0.075         	5.181135e-02	4.061027e-02	1.116461e-01	4.681910e-02
0.08          	4.645268e-02	3.240940e-02	8.894184e-02	3.916640e-02
0.085         	4.453679e-02	3.112744e-02	8.687131e-02	3.806769e-02
0.09          	4.031654e-02	2.601651e-02	7.243258e-02	3.295544e-02
0.095         	3.785949e-02	2.499390e-02	7.001786e-02	3.195920e-02
0.1           	3.475419e-02	2.130687e-02	5.896131e-02	2.813913e-02
0.105         	3.219902e-02	1.933782e-02	5.332405e-02	2.596434e-02
0.11          	3.101080e-02	1.793087e-02	4.997266e-02	2.434691e-02
0.115         	2.920730e-02	1.681569e-02	4.774295e-02	2.305062e-02
0.12          	2.925229e-02	1.594903e-02	4.580216e-02	2.200926e-02
0.125         	2.910926e-02	1.586320e-02	4.830687e-02	2.272109e-02
0.13          	2.839304e-02	1.782801e-02	5.449175e-02	2.451760e-02
0.135         	2.606793e-02	1.500561e-02	4.234003e-02	2.052118e-02
0.14          	2.565826e-02	1.466949e-02	4.174119e-02	2.007477e-02
0.145         	2.452539e-02	1.335460e-02	3.716950e-02	1.842552e-02
0.15          	2.445282e-02	1.420940e-02	4.118068e-02	1.943705e-02
0.155         	2.971294e-02	1.245696e-02	3.492341e-02	1.741739e-02
0.16          	2.732604e-02	2.227764e-02	8.758417e-02	4.285551e-02
0.165         	2.588044e-02	2.259527e-02	8.065464e-02	3.284821e-02
0.17          	2.544888e-02	1.848899e-02	5.980760e-02	2.579917e-02
0.175         	2.432307e-02	1.588855e-02	4.926464e-02	2.189048e-02
0.18          	2.336782e-02	1.380430e-02	4.298054e-02	1.960043e-02
0.185         	2.203046e-02	1.223638e-02	3.569755e-02	1.737372e-02
0.19          	2.173528e-02	1.221948e-02	3.396170e-02	1.691585e-02
0.195         	2.084242e-02	1.090794e-02	2.960550e-02	1.509128e-02
0.2           	2.002489e-02	1.069897e-02	3.021830e-02	1.485837e-02
0.205         	2.789798e-02	9.436767e-03	2.668847e-02	1.370275e-02
0.21          	2.748807e-02	8.274237e-02	2.121975e-01	1.112462e-01
0.215         	3.010190e-02	6.144378e-02	1.653943e-01	7.254672e-02
0.22          	3.045459e-02	3.973621e-02	1.050492e-01	4.904036e-02
0.225         	2.719976e-02	3.093625e-02	9.032363e-02	3.779783e-02
0.23          	2.533454e-02	2.354012e-02	7.235594e-02	3.080962e-02
0.235         	2.481150e-02	2.045194e-02	5.975799e-02	2.624283e-02
0.24          	2.428394e-02	1.816982e-02	5.124545e-02	2.349052e-02
0.245         	2.375256e-02	1.687336e-02	4.738572e-02	2.234259e-02
0.25          	2.286190e-02	1.585713e-02	4.424673e-02	2.100964e-02
0.255         	2.275775e-02	1.464321e-02	4.059695e-02	1.945424e-02
0.26          	4.597621e-02	1.356370e-02	3.580654e-02	1.712783e-02
0.265         	6.980504e-02	3.722982e-01	5.687714e-01	4.319681e-01
0.27          	1.017073e-01	3.604241e-01	4.213618e-01	3.652229e-01
0.275         	1.094050e-01	2.992971e-01	3.612872e-01	3.332928e-01
0.28          	1.032087e-01	2.577591e-01	3.098972e-01	2.686446e-01
0.285         	1.063990e-01	2.341589e-01	3.024029e-01	2.550758e-01
0.29          	1.032048e-01	2.213901e-01	2.834127e-01	2.459797e-01
0.295         	9.924475e-02	2.058419e-01	2.658138e-01	2.317873e-01
0.3           	9.558362e-02	1.859998e-01	2.427895e-01	2.197418e-01
0.305         	9.271946e-02	1.707917e-01	2.316341e-01	2.092557e-01
0.31          	8.942137e-02	1.543070e-01	2.202613e-01	1.941883e-01
0.315         	8.892463e-02	1.420750e-01	2.101405e-01	1.834452e-01
0.32          	8.633805e-02	1.311474e-01	2.004703e-01	1.747327e-01
0.325         	8.377485e-02	1.222543e-01	1.915868e-01	1.660102e-01
0.33          	8.117405e-02	1.169510e-01	1.842821e-01	1.609564e-01
0.335         	7.911432e-02	1.116683e-01	1.738167e-01	1.536469e-01
0.34          	7.783835e-02	1.078398e-01	1.655835e-01	1.495888e-01
0.345         	7.573084e-02	1.047793e-01	1.555553e-01	1.438345e-01
0.35          	7.510334e-02	1.015911e-01	1.465618e-01	1.375644e-01
0.355         	7.368038e-02	9.898218e-02	1.407400e-01	1.325337e-01
0.36          	7.315162e-02	9.628540e-02	1.354266e-01	1.280936e-01
0.365         	7.155282e-02	9.408329e-02	1.312267e-01	1.231883e-01
0.37          	7.004743e-02	9.184046e-02	1.285206e-01	1.172592e-01
0.375         	6.868120e-02	8.913385e-02	1.273235e-01	1.121659e-01
0.38          	6.769236e-02	8.678578e-02	1.261811e-01	1.080587e-01
0.385         	6.555444e-02	8.487573e-02	1.254643e-01	1.045197e-01
0.39          	6.316310e-02	8.213964e-02	1.233373e-01	9.970071e-02
0.395         	6.150844e-02	7.832676e-02	1.212335e-01	9.546163e-02
0.4           	5.958097e-02	7.405305e-02	1.176897e-01	9.069602e-02
0.405         	5.809921e-02	7.036648e-02	1.132604e-01	8.662590e-02
0.41          	5.665411e-02	6.653450e-02	1.086746e-01	8.411333e-02
0.415         	5.603711e-02	6.312053e-02	1.048208e-01	8.080159e-02
0.42          	5.717803e-02	5.993426e-02	1.007048e-01	7.859486e-02
0.425         	5.692481e-02	6.750553e-02	1.081473e-01	1.093901e-01
0.43          	5.783036e-02	7.364144e-02	1.200697e-01	1.206341e-01
0.435         	5.659281e-02	6.137332e-02	1.090960e-01	9.132368e-02
0.44          	5.631908e-02	5.597541e-02	1.005062e-01	8.354364e-02
0.445         	5.551018e-02	5.308074e-02	9.687302e-02	7.978997e-02
0.45          	5.519684e-02	5.110408e-02	9.468465e-02	7.729559e-02
0.455         	5.453205e-02	4.936821e-02	9.186191e-02	7.479347e-02
0.46          	5.433736e-02	4.768366e-02	9.015926e-02	7.209220e-02
0.465         	5.424883e-02	4.647270e-02	8.808505e-02	6.954718e-02
0.47          	5.417420e-02	4.547298e-02	8.640944e-02	6.781519e-02
0.475         	5.396018e-02	4.449124e-02	8.516715e-02	6.640393e-02
0.48          	5.397431e-02	4.355383e-02	8.411385e-02	6.462504e-02
0.485         	5.382949e-02	4.254325e-02	8.263584e-02	6.329330e-02
0.49          	5.396666e-02	4.185208e-02	8.219985e-02	6.232569e-02
0.495         	5.342986e-02	4.100586e-02	8.174859e-02	6.171559e-02
0.5           	5.299532e-02	4.022040e-02	8.080831e-02	6.070367e-02
0.505         	5.270341e-02	3.957992e-02	8.053024e-02	5.906225e-02
0.51          	5.300155e-02	3.870558e-02	7.986724e-02	5.746806e-02
0.515         	5.230518e-02	3.822700e-02	8.105215e-02	5.740074e-02
0.52          	5.203839e-02	3.808395e-02	8.229507e-02	5.681255e-02
0.525         	5.102067e-02	3.718803e-02	8.121257e-02	5.548785e-02
0.53          	4.981869e-02	3.624725e-02	8.020053e-02	5.474199e-02
0.535         	4.936523e-02	3.558754e-02	7.932724e-02	5.401204e-02
0.54          	4.845700e-02	3.503780e-02	7.876511e-02	5.313568e-02
0.545         	4.772978e-02	3.453309e-02	7.778228e-02	5.199661e-02
0.55          	4.688527e-02	3.413753e-02	7.653463e-02	5.092442e-02
0.555         	4.707244e-02	3.390834e-02	7.553421e-02	5.019765e-02
0.56          	4.646944e-02	3.362789e-02	7.447136e-02	4.979461e-02
0.565         	4.616518e-02	3.358058e-02	7.383974e-02	4.927632e-02
0.57          	4.575522e-02	3.334788e-02	7.382961e-02	4.930109e-02
0.575         	4.656243e-02	3.307504e-02	7.307361e-02	4.880644e-02
0.58          	4.712835e-02	3.358545e-02	8.063021e-02	4.898336e-02
0.585         	4.727185e-02	3.802620e-02	1.117202e-01	5.680525e-02
0.59          	4.633174e-02	3.448607e-02	8.457031e-02	5.173814e-02
0.595         	4.632045e-02	3.295158e-02	7.640897e-02	4.847355e-02
0.6           	4.540268e-02	3.247530e-02	7.463506e-02	4.816952e-02
0.605         	4.350690e-02	3.147088e-02	7.097216e-02	4.629296e-02
0.61          	4.301163e-02	3.065933e-02	6.968726e-02	4.544524e-02
0.615         	4.230852e-02	2.992889e-02	6.784399e-02	4.439735e-02
0.62          	4.165758e-02	2.965618e-02	6.619808e-02	4.366040e-02
0.625         	4.199030e-02	2.983205e-02	6.560759e-02	4.291145e-02
0.63          	4.160606e-02	2.976066e-02	6.470754e-02	4.254781e-02
0.635         	4.208866e-02	2.984410e-02	6.431800e-02	4.195266e-02
0.64          	4.245614e-02	2.981452e-02	6.398071e-02	4.179507e-02
0.645         	4.203886e-02	2.958410e-02	6.360697e-02	4.155876e-02
0.65          	4.227719e-02	2.940997e-02	6.293061e-02	4.118575e-02
0.655         	4.222452e-02	2.921097e-02	6.213370e-02	4.065048e-02
0.66          	4.230398e-02	2.914382e-02	6.156267e-02	4.030536e-02
0.665         	4.270891e-02	2.905149e-02	6.146591e-02	4.000713e-02
0.67          	4.268027e-02	2.888625e-02	6.072324e-02	3.993478e-02
0.675         	4.328669e-02	2.873039e-02	6.046812e-02	3.978944e-02
0.68          	4.372222e-02	2.878028e-02	6.060300e-02	3.978550e-02
0.685         	6.059296e-02	2.908598e-02	6.069872e-02	4.001627e-02
0.69          	6.060831e-02	6.880691e-02	1.974494e-01	9.484266e-02
0.695         	6.933159e-02	1.728712e-01	3.605160e-01	2.199585e-01
0.7           	7.023942e-02	1.191100e-01	2.488951e-01	1.655674e-01
0.705         	6.736519e-02	8.319225e-02	1.839442e-01	1.139582e-01
0.71          	6.342756e-02	6.628303e-02	1.419081e-01	9.169687e-02
0.715         	6.284495e-02	5.586660e-02	1.201478e-01	7.902166e-02
0.72          	5.911363e-02	5.270522e-02	1.113240e-01	7.122874e-02
0.725         	5.773332e-02	4.882179e-02	1.021460e-01	6.439165e-02
0.73          	5.432619e-02	4.377587e-02	9.005664e-02	5.821197e-02
0.735         	5.281161e-02	4.081205e-02	8.113702e-02	5.467624e-02
0.74          	5.105678e-02	3.823013e-02	7.541612e-02	5.212228e-02
0.745         	4.975112e-02	3.580544e-02	7.170300e-02	4.969454e-02
0.75          	4.885719e-02	3.419769e-02	6.752581e-02	4.703030e-02
0.755         	4.803758e-02	3.270358e-02	6.369770e-02	4.469992e-02
0.76          	4.693417e-02	3.156369e-02	6.012160e-02	4.267783e-02
0.765         	4.653527e-02	3.059250e-02	5.772747e-02	4.145357e-02
0.77          	4.623508e-02	2.996491e-02	5.601894e-02	4.048926e-02
0.775         	4.643464e-02	2.935753e-02	5.483899e-02	3.982145e-02
0.78          	4.690730e-02	2.913158e-02	5.402793e-02	3.919055e-02
0.785         	4.732647e-02	2.899130e-02	5.343543e-02	3.856105e-02
0.79          	4.688404e-02	2.885276e-02	5.322382e-02	3.797699e-02
0.795         	4.710403e-02	2.873424e-02	5.268713e-02	3.772745e-02
0.8           	4.655326e-02	2.883429e-02	5.254297e-02	3.740055e-02
0.805         	4.624513e-02	2.902225e-02	5.255829e-02	3.719315e-02
0.81          	4.631973e-02	2.893855e-02	5.237689e-02	3.688986e-02
0.815         	4.792461e-02	2.889398e-02	5.213685e-02	3.670716e-02
0.82          	4.652063e-02	2.899877e-02	5.207106e-02	3.689628e-02
0.825         	4.643266e-02	2.915836e-02	5.254838e-02	3.708160e-02
0.83          	4.666552e-02	2.894998e-02	5.272000e-02	3.687081e-02
0.835         	4.590905e-02	2.887244e-02	5.252899e-02	3.689140e-02
0.84          	4.581426e-02	2.881248e-02	5.241541e-02	3.692650e-02
0.845         	4.603050e-02	2.887840e-02	5.241912e-02	3.690116e-02
0.85          	4.612375e-02	2.894775e-02	5.275347e-02	3.690728e-02
0.855         	4.573247e-02	2.883361e-02	5.289923e-02	3.677626e-02
0.86          	4.529213e-02	2.888422e-02	5.320933e-02	3.678277e-02
0.865         	4.508588e-02	2.882437e-02	5.318004e-02	3.669073e-02
0.87          	4.531912e-02	2.886281e-02	5.304704e-02	3.658901e-02
0.875         	4.567907e-02	2.882549e-02	5.280534e-02	3.632156e-02
0.88          	4.728413e-02	2.884077e-02	5.292630e-02	3.615360e-02
0.885         	4.855508e-02	2.893170e-02	5.305247e-02	3.596439e-02
0.89          	4.772237e-02	3.195802e-02	5.992749e-02	3.977679e-02
0.895         	4.736291e-02	3.023449e-02	5.741086e-02	3.771829e-02
0.9           	4.749875e-02	2.975596e-02	5.522562e-02	3.655505e-02
0.905         	4.668724e-02	2.945860e-02	5.477371e-02	3.599392e-02
0.91          	4.643755e-02	2.924750e-02	5.447133e-02	3.556932e-02
0.915         	4.585644e-02	2.914512e-02	5.440116e-02	3.537416e-02
0.92          	4.558881e-02	2.903100e-02	5.435599e-02	3.501139e-02
0.925         	4.551521e-02	2.881966e-02	5.422775e-02	3.471788e-02
0.93          	4.510857e-02	2.866038e-02	5.420322e-02	3.452266e-02
0.935         	4.484649e-02	2.849008e-02	5.414968e-02	3.422725e-02
0.94          	4.466081e-02	2.841055e-02	5.409939e-02	3.399207e-02
0.945         	4.562242e-02	2.851266e-02	5.640320e-02	3.410524e-02
0.95          	4.566712e-02	2.887350e-02	5.741348e-02	3.464757e-02
0.955         	4.602724e-02	2.909256e-02	5.614713e-02	3.472092e-02
0.96          	4.587239e-02	2.915456e-02	5.501027e-02	3.469631e-02
0.965         	4.592956e-02	2.923090e-02	5.515563e-02	3.473579e-02
0.97          	4.547563e-02	2.943799e-02	5.507247e-02	3.503270e-02
0.975         	4.534697e-02	2.943582e-02	5.418847e-02	3.506589e-02
0.98          	4.559587e-02	2.949965e-02	5.381824e-02	3.512240e-02
0.985         	4.571458e-02	2.966369e-02	5.384341e-02	3.520606e-02
0.99          	4.560597e-02	2.981895e-02	5.374771e-02	3.522393e-02
0.995         	4.572182e-02	3.006674e-02	5.351629e-02	3.520191e-02
1             	4.586742e-02	3.030954e-02	5.334164e-02	3.529780e-02
1.005         	4.579019e-02	3.055479e-02	5.326207e-02	3.547329e-02
1.01          	4.602412e-02	3.066482e-02	5.296096e-02	3.574172e-02
1.015         	4.568559e-02	3.104535e-02	5.377698e-02	3.652206e-02
1.02          	4.614335e-02	3.128909e-02	5.379923e-02	3.625942e-02
1.025         	4.554205e-02	3.131780e-02	5.332362e-02	3.615176e-02
1.03          	4.522386e-02	3.135953e-02	5.300735e-02	3.607275e-02
1.035         	4.475530e-02	3.148251e-02	5.289210e-02	3.616272e-02
1.04          	4.455424e-02	3.161815e-02	5.283735e-02	3.622232e-02
1.045         	4.482546e-02	3.161160e-02	5.278978e-02	3.621242e-02
1.05          	4.499847e-02	3.155385e-02	5.262902e-02	3.613445e-02
1.055         	4.509238e-02	3.145466e-02	5.263824e-02	3.608008e-02
1.06          	4.582318e-02	3.134240e-02	5.262012e-02	3.597474e-02
1.065         	4.572386e-02	3.361537e-02	5.674852e-02	4.295610e-02
1.07          	4.593901e-02	3.245813e-02	5.592478e-02	3.930233e-02
1.075         	4.530042e-02	3.208711e-02	5.524457e-02	3.837690e-02
1.08          	4.483507e-02	3.142255e-02	5.387393e-02	3.726403e-02
1.085         	4.507407e-02	3.107569e-02	5.307736e-02	3.694713e-02
1.09          	4.505094e-02	3.076352e-02	5.263224e-02	3.661043e-02
1.095         	4.490077e-02	3.067141e-02	5.231149e-02	3.656158e-02
1.1           	4.513651e-02	3.068205e-02	5.205769e-02	3.645840e-02
1.105         	4.516068e-02	3.074187e-02	5.189564e-02	3.633382e-02
1.11          	4.539835e-02	3.073290e-02	5.179884e-02	3.625531e-02
1.115         	4.546538e-02	3.078038e-02	5.193522e-02	3.624197e-02
1.12          	4.608801e-02	3.081187e-02	5.225585e-02	3.626369e-02
1.125         	4.646850e-02	3.082466e-02	5.244631e-02	3.616521e-02
1.13          	4.681314e-02	3.092384e-02	5.272115e-02	3.613986e-02
1.135         	5.312419e-02	3.107131e-02	5.297851e-02	3.598804e-02
1.14          	4.978469e-02	3.177431e-02	6.275265e-02	3.885479e-02
1.145         	5.166688e-02	3.997016e-02	8.212946e-02	4.394404e-02
1.15          	5.077596e-02	3.601707e-02	6.523412e-02	4.267613e-02
1.155         	5.165692e-02	3.423842e-02	6.039997e-02	3.961270e-02
1.16          	5.165885e-02	3.546696e-02	6.318302e-02	4.356881e-02
1.165         	5.119098e-02	3.473389e-02	6.029322e-02	4.049770e-02
1.17          	5.047242e-02	3.382185e-02	5.765947e-02	3.852253e-02
1.175         	4.974299e-02	3.327931e-02	5.567761e-02	3.750204e-02
1.18          	4.906459e-02	3.276669e-02	5.410243e-02	3.652324e-02
1.185         	4.957974e-02	3.243431e-02	5.332091e-02	3.599124e-02
1.19          	4.916610e-02	3.322797e-02	5.892179e-02	3.660084e-02
1.195         	4.872500e-02	3.224368e-02	5.362905e-02	3.586627e-02
1.2           	4.859384e-02	3.190938e-02	5.287877e-02	3.554946e-02
1.205         	4.804753e-02	3.164880e-02	5.271040e-02	3.534838e-02
1.21          	4.752430e-02	3.135791e-02	5.219643e-02	3.516748e-02
1.215         	4.672268e-02	3.110842e-02	5.179065e-02	3.483249e-02
1.22          	4.715692e-02	3.087809e-02	5.138945e-02	3.444565e-02
1.225         	4.706232e-02	3.070029e-02	5.102021e-02	3.415777e-02
1.23          	4.743772e-02	3.059743e-02	5.096249e-02	3.401666e-02
1.235         	4.738398e-02	3.045691e-02	5.089792e-02	3.384430e-02
1.24          	4.703418e-02	3.036637e-02	5.088465e-02	3.376734e-02
1.245         	4.632109e-02	3.025796e-02	5.099907e-02	3.368222e-02
1.25          	4.612491e-02	3.010562e-02	5.109663e-02	3.349286e-02
1.255         	4.613984e-02	3.004116e-02	5.095114e-02	3.334796e-02
1.26          	4.611887e-02	2.994678e-02	5.077832e-02	3.319688e-02
1.265         	4.578835e-02	2.983940e-02	5.062720e-02	3.286399e-02
1.27          	4.588259e-02	2.973044e-02	5.048384e-02	3.251371e-02
1.275         	4.559407e-02	2.966320e-02	5.020056e-02	3.232925e-02
1.28          	4.549541e-02	2.957228e-02	5.006606e-02	3.210486e-02
1.285         	4.523591e-02	2.942311e-02	4.980773e-02	3.190369e-02
1.29          	4.503065e-02	2.938867e-02	4.977114e-02	3.180977e-02
1.295         	4.453087e-02	2.937733e-02	4.970135e-02	3.174731e-02
1.3           	4.401807e-02	2.932458e-02	4.952132e-02	3.167598e-02
1.305         	4.351713e-02	2.926972e-02	4.930771e-02	3.154060e-02
1.31          	4.336399e-02	2.861801e-02	4.731172e-02	3.046241e-02
1.315         	4.450411e-02	3.021375e-02	5.227445e-02	3.253378e-02
1.32          	4.358957e-02	2.889478e-02	4.825979e-02	3.075133e-02
1.325         	4.457273e-02	3.045795e-02	5.263570e-02	3.268801e-02
1.33          	4.314934e-02	2.910790e-02	4.855284e-02	3.091940e-02
1.335         	4.407742e-02	3.045295e-02	5.229306e-02	3.255960e-02
1.34          	5.203227e-02	2.912094e-02	4.854651e-02	3.095410e-02
1.345         	4.969214e-02	3.744042e-02	7.790475e-02	5.798282e-02
1.35          	9.662516e-02	3.935889e-02	9.203530e-02	5.526200e-02
1.355         	1.740378e-01	3.748759e-01	5.368401e-01	5.077464e-01
1.36          	2.660885e-01	4.540075e-01	4.479548e-01	4.723509e-01
1.365         	2.224352e-01	3.900060e-01	3.496273e-01	3.953240e-01
1.37          	1.872445e-01	3.316377e-01	3.128308e-01	3.334314e-01
1.375         	2.198970e-01	2.910102e-01	2.832257e-01	2.761819e-01
1.38          	7.157752e-01	8.015041e-01	7.683641e-01	8.104889e-01
1.385         	3.737827e-01	5.988534e-01	6.175155e-01	5.629173e-01
1.39          	3.429141e-01	4.810131e-01	4.996357e-01	5.201527e-01
1.395         	4.013974e-01	4.289047e-01	4.679048e-01	4.432941e-01
1.4           	3.798354e-01	6.140863e-01	6.466126e-01	5.022876e-01
1.405         	9.429561e-02	6.052205e-01	5.077988e-01	5.260954e-01
1.41          	9.003394e-02	4.665405e-01	4.635863e-01	4.593052e-01
1.415         	9.242892e-02	4.258549e-01	4.412274e-01	4.478459e-01
1.42          	7.735359e-02	4.135967e-01	4.102228e-01	3.754472e-01
1.425         	6.911157e-02	3.857078e-01	3.588673e-01	3.847237e-01
1.43          	6.929847e-02	3.347154e-01	3.091902e-01	3.223432e-01
1.435         	7.940529e-02	2.993676e-01	2.805309e-01	2.990453e-01
1.44          	7.991376e-02	2.947054e-01	2.812566e-01	2.966069e-01
1.445         	8.104736e-02	2.661888e-01	2.773585e-01	2.879344e-01
1.45          	7.733741e-02	2.584983e-01	2.590268e-01	2.862054e-01
1.455         	7.731006e-02	2.384450e-01	2.357841e-01	2.601734e-01
1.46          	2.753022e-01	2.320483e-01	2.255261e-01	2.558236e-01
1.465         	3.128473e-01	5.579797e-01	5.305970e-01	5.843075e-01
1.47          	9.998264e-01	5.187603e-01	5.589043e-01	5.400487e-01
1.475         	3.588854e-01	4.705326e-01	4.808828e-01	4.732340e-01
1.48          	2.211872e-01	3.974177e-01	4.155784e-01	4.256868e-01
1.485         	1.801409e-01	3.308482e-01	3.655640e-01	3.634184e-01
1.49          	1.917405e-01	3.090392e-01	3.430376e-01	3.484799e-01
1.495         	1.675138e-01	2.748915e-01	3.160010e-01	3.111769e-01
1.5           	1.679941e-01	2.639174e-01	2.943346e-01	2.989064e-01
1.505         	1.642962e-01	2.626218e-01	2.925931e-01	2.829323e-01
1.51          	1.542609e-01	2.472920e-01	2.741273e-01	2.585804e-01
1.515         	1.449174e-01	2.371426e-01	2.650748e-01	2.568054e-01
1.52          	2.157367e-01	2.355063e-01	2.426108e-01	2.414348e-01
