# Residuals   
# Time        	p             	Ux            	Uy            	Uz            
0.005         	1.000000e+00	1.000000e+00	1.000000e+00	1.000000e+00
0.01          	1.988295e-01	4.768909e-01	5.234000e-01	4.718203e-01
0.015         	9.123022e-02	2.795020e-01	4.420798e-01	2.998454e-01
0.02          	1.343976e-01	2.137837e-01	4.373954e-01	2.146307e-01
0.025         	1.208852e-01	1.439586e-01	3.430738e-01	1.410861e-01
0.03          	8.771914e-02	8.766680e-02	2.230001e-01	9.107291e-02
0.035         	7.080758e-02	6.203352e-02	1.550241e-01	6.684881e-02
0.04          	6.425714e-02	5.408493e-02	1.470310e-01	5.338869e-02
0.045         	4.748498e-02	4.089697e-02	1.150305e-01	4.063456e-02
0.05          	3.681246e-02	3.102274e-02	8.626386e-02	3.250419e-02
0.055         	3.303678e-02	2.146324e-02	5.740796e-02	2.464785e-02
0.06          	2.936386e-02	1.748690e-02	4.537124e-02	2.121375e-02
0.065         	2.740821e-02	1.544800e-02	4.019569e-02	1.887077e-02
0.07          	2.600405e-02	1.379872e-02	3.645716e-02	1.689208e-02
0.075         	2.365989e-02	1.192724e-02	3.107111e-02	1.509948e-02
0.08          	2.086877e-02	1.045832e-02	2.665358e-02	1.372437e-02
0.085         	1.920689e-02	9.637267e-03	2.429114e-02	1.285063e-02
0.09          	1.776348e-02	8.815964e-03	2.178788e-02	1.194128e-02
0.095         	1.622252e-02	8.087519e-03	1.960243e-02	1.113216e-02
0.1           	1.499150e-02	7.554607e-03	1.812119e-02	1.046390e-02
0.105         	1.392831e-02	7.108001e-03	1.691372e-02	9.860356e-03
0.11          	1.298909e-02	6.710394e-03	1.583285e-02	9.305996e-03
0.115         	1.214154e-02	6.345842e-03	1.483791e-02	8.798775e-03
0.12          	1.137159e-02	6.003119e-03	1.389897e-02	8.334757e-03
0.125         	1.067550e-02	5.683213e-03	1.303532e-02	7.916373e-03
0.13          	1.005294e-02	5.389847e-03	1.227427e-02	7.538609e-03
0.135         	9.498249e-03	5.128131e-03	1.162342e-02	7.196000e-03
0.14          	9.005017e-03	4.895084e-03	1.106584e-02	6.880949e-03
0.145         	8.557338e-03	4.685628e-03	1.056854e-02	6.586404e-03
0.15          	8.146684e-03	4.491239e-03	1.009948e-02	6.307716e-03
0.155         	7.768122e-03	4.307522e-03	9.659600e-03	6.041229e-03
0.16          	7.416855e-03	4.132435e-03	9.245569e-03	5.787796e-03
0.165         	7.105705e-03	3.977613e-03	8.893180e-03	5.553537e-03
0.17          	6.833766e-03	3.834085e-03	8.564674e-03	5.337537e-03
0.175         	6.577653e-03	3.683657e-03	8.180345e-03	5.123794e-03
0.18          	6.323371e-03	3.535007e-03	7.791598e-03	4.920968e-03
0.185         	6.095432e-03	3.414659e-03	7.481384e-03	4.734941e-03
0.19          	5.884989e-03	3.315354e-03	7.214185e-03	4.559143e-03
0.195         	5.684073e-03	3.223270e-03	6.955819e-03	4.390172e-03
0.2           	5.488640e-03	3.129555e-03	6.694828e-03	4.228572e-03
0.205         	5.299991e-03	3.035079e-03	6.436121e-03	4.076067e-03
0.21          	5.117335e-03	2.941161e-03	6.184247e-03	3.931765e-03
0.215         	4.939858e-03	2.849443e-03	5.945476e-03	3.795046e-03
0.22          	4.771460e-03	2.763319e-03	5.723518e-03	3.665416e-03
0.225         	4.610363e-03	2.681494e-03	5.513194e-03	3.540975e-03
0.23          	4.455342e-03	2.603566e-03	5.312595e-03	3.420919e-03
0.235         	4.306610e-03	2.529762e-03	5.124344e-03	3.305184e-03
0.24          	4.164038e-03	2.459561e-03	4.946336e-03	3.194876e-03
0.245         	4.027777e-03	2.393212e-03	4.777388e-03	3.090646e-03
0.25          	3.899238e-03	2.331432e-03	4.620375e-03	2.992778e-03
0.255         	3.774814e-03	2.270334e-03	4.463219e-03	2.899178e-03
0.26          	3.656717e-03	2.213107e-03	4.313736e-03	2.809212e-03
0.265         	3.544878e-03	2.161294e-03	4.174120e-03	2.722015e-03
0.27          	3.438640e-03	2.114209e-03	4.044113e-03	2.636902e-03
0.275         	3.337473e-03	2.070591e-03	3.920922e-03	2.553898e-03
0.28          	3.240280e-03	2.028962e-03	3.802438e-03	2.473696e-03
0.285         	3.146829e-03	1.988890e-03	3.688702e-03	2.396959e-03
0.29          	3.056968e-03	1.950655e-03	3.578770e-03	2.324025e-03
0.295         	2.970577e-03	1.913985e-03	3.473546e-03	2.254345e-03
0.3           	2.887431e-03	1.878972e-03	3.372727e-03	2.187685e-03
0.305         	2.807690e-03	1.845842e-03	3.275933e-03	2.123484e-03
0.31          	2.731404e-03	1.814448e-03	3.183900e-03	2.061728e-03
0.315         	2.658351e-03	1.783821e-03	3.095058e-03	2.002189e-03
0.32          	2.587988e-03	1.754005e-03	3.009208e-03	1.944675e-03
0.325         	2.520554e-03	1.724914e-03	2.926137e-03	1.889086e-03
0.33          	2.455524e-03	1.696359e-03	2.844873e-03	1.835646e-03
0.335         	2.392712e-03	1.668234e-03	2.765329e-03	1.784355e-03
0.34          	2.331729e-03	1.640089e-03	2.687478e-03	1.735113e-03
0.345         	2.272721e-03	1.612188e-03	2.611476e-03	1.688140e-03
0.35          	2.215778e-03	1.584376e-03	2.537424e-03	1.643431e-03
0.355         	2.160683e-03	1.556828e-03	2.465972e-03	1.600635e-03
0.36          	2.107775e-03	1.529510e-03	2.396697e-03	1.559470e-03
0.365         	2.056387e-03	1.502189e-03	2.329792e-03	1.519801e-03
0.37          	2.006547e-03	1.474835e-03	2.264822e-03	1.481337e-03
0.375         	1.958296e-03	1.447485e-03	2.201591e-03	1.443911e-03
0.38          	1.911358e-03	1.420207e-03	2.139988e-03	1.407319e-03
0.385         	1.865792e-03	1.393053e-03	2.079655e-03	1.371311e-03
0.39          	1.821415e-03	1.366049e-03	2.020488e-03	1.335946e-03
0.395         	1.777907e-03	1.339052e-03	1.962727e-03	1.301314e-03
0.4           	1.735510e-03	1.311932e-03	1.906490e-03	1.267369e-03
0.405         	1.693696e-03	1.284822e-03	1.851568e-03	1.234010e-03
0.41          	1.652422e-03	1.257595e-03	1.797605e-03	1.201257e-03
0.415         	1.611601e-03	1.230304e-03	1.744599e-03	1.169169e-03
0.42          	1.571493e-03	1.202948e-03	1.692608e-03	1.137596e-03
0.425         	1.531955e-03	1.175616e-03	1.641350e-03	1.106424e-03
0.43          	1.493037e-03	1.148373e-03	1.591012e-03	1.075571e-03
0.435         	1.454595e-03	1.121105e-03	1.541874e-03	1.045055e-03
0.44          	1.416669e-03	1.093884e-03	1.493937e-03	1.014807e-03
0.445         	1.379348e-03	1.066867e-03	1.447411e-03	9.848431e-04
0.45          	1.342423e-03	1.039820e-03	1.402439e-03	9.552257e-04
0.455         	1.305858e-03	1.012810e-03	1.359157e-03	9.260958e-04
0.46          	1.269602e-03	9.854564e-04	1.316937e-03	8.976862e-04
0.465         	1.233431e-03	9.572537e-04	1.274232e-03	8.700708e-04
0.47          	1.197150e-03	9.280914e-04	1.230317e-03	8.428570e-04
0.475         	1.161143e-03	8.986983e-04	1.186936e-03	8.157953e-04
0.48          	1.125638e-03	8.698324e-04	1.145347e-03	7.888930e-04
0.485         	1.090602e-03	8.416203e-04	1.105373e-03	7.621816e-04
0.49          	1.056040e-03	8.139829e-04	1.066518e-03	7.357255e-04
0.495         	1.021923e-03	7.869082e-04	1.028572e-03	7.096624e-04
0.5           	9.882087e-04	7.603469e-04	9.914369e-04	6.841423e-04
0.505         	9.549578e-04	7.342284e-04	9.553859e-04	6.592726e-04
0.51          	9.222490e-04	7.085234e-04	9.203968e-04	6.350847e-04
0.515         	8.900719e-04	6.833565e-04	8.864440e-04	6.116438e-04
0.52          	8.584791e-04	6.586651e-04	8.536961e-04	5.889093e-04
0.525         	8.274903e-04	6.344438e-04	8.219215e-04	5.668021e-04
0.53          	7.971706e-04	6.106735e-04	7.911198e-04	5.452097e-04
0.535         	7.674947e-04	5.872657e-04	7.611346e-04	5.240447e-04
0.54          	7.384050e-04	5.643177e-04	7.320526e-04	5.032430e-04
0.545         	7.098767e-04	5.418459e-04	7.037754e-04	4.828315e-04
0.55          	6.819436e-04	5.198391e-04	6.763299e-04	4.628409e-04
0.555         	6.546646e-04	4.984051e-04	6.496497e-04	4.433068e-04
0.56          	6.281112e-04	4.776326e-04	6.237256e-04	4.242561e-04
0.565         	6.022734e-04	4.575402e-04	5.985967e-04	4.057085e-04
0.57          	5.771558e-04	4.381339e-04	5.742632e-04	3.876836e-04
0.575         	5.527502e-04	4.194476e-04	5.507069e-04	3.702354e-04
0.58          	5.290811e-04	4.013849e-04	5.279123e-04	3.533698e-04
0.585         	5.061860e-04	3.839014e-04	5.059340e-04	3.371031e-04
0.59          	4.840980e-04	3.669630e-04	4.847195e-04	3.213914e-04
0.595         	4.627658e-04	3.505880e-04	4.642668e-04	3.062290e-04
0.6           	4.422058e-04	3.347037e-04	4.445446e-04	2.916050e-04
0.605         	4.223739e-04	3.193320e-04	4.255445e-04	2.775132e-04
0.61          	4.032476e-04	3.044497e-04	4.072416e-04	2.639223e-04
0.615         	3.847657e-04	2.900640e-04	3.896341e-04	2.508272e-04
0.62          	3.669402e-04	2.761373e-04	3.726134e-04	2.382227e-04
0.625         	3.497569e-04	2.627016e-04	3.562222e-04	2.261032e-04
0.63          	3.331862e-04	2.497314e-04	3.404442e-04	2.144757e-04
0.635         	3.172653e-04	2.372309e-04	3.252328e-04	2.033457e-04
0.64          	3.019101e-04	2.251985e-04	3.106114e-04	1.926908e-04
0.645         	2.871558e-04	2.136401e-04	2.965601e-04	1.824993e-04
0.65          	2.729717e-04	2.025506e-04	2.830404e-04	1.727740e-04
0.655         	2.593531e-04	1.919159e-04	2.700379e-04	1.635208e-04
0.66          	2.463023e-04	1.817611e-04	2.575198e-04	1.547291e-04
0.665         	2.337716e-04	1.720484e-04	2.454563e-04	1.463812e-04
0.67          	2.217527e-04	1.627759e-04	2.338403e-04	1.384723e-04
0.675         	2.102560e-04	1.539389e-04	2.226622e-04	1.309851e-04
0.68          	1.992819e-04	1.455222e-04	2.119149e-04	1.239065e-04
0.685         	1.888048e-04	1.375216e-04	2.015931e-04	1.172152e-04
0.69          	1.788277e-04	1.299283e-04	1.916970e-04	1.109037e-04
0.695         	1.693096e-04	1.227374e-04	1.822321e-04	1.049614e-04
0.7           	1.602714e-04	1.159385e-04	1.731868e-04	9.937448e-05
0.705         	1.516910e-04	1.095261e-04	1.645328e-04	9.413196e-05
0.71          	1.435466e-04	1.034852e-04	1.562551e-04	8.921052e-05
0.715         	1.358270e-04	9.779565e-05	1.483482e-04	8.460042e-05
0.72          	1.285302e-04	9.245089e-05	1.408007e-04	8.028379e-05
0.725         	1.216185e-04	8.743896e-05	1.336052e-04	7.624699e-05
0.73          	1.150775e-04	8.274634e-05	1.267479e-04	7.247199e-05
0.735         	1.088945e-04	7.835449e-05	1.202169e-04	6.894595e-05
0.74          	1.030637e-04	7.424566e-05	1.140147e-04	6.565434e-05
0.745         	9.758018e-05	7.040202e-05	1.081310e-04	6.258312e-05
0.75          	9.242442e-05	6.680466e-05	1.025650e-04	5.971224e-05
0.755         	8.756892e-05	6.344590e-05	9.729430e-05	5.703011e-05
0.76          	8.300074e-05	6.031381e-05	9.231060e-05	5.452408e-05
0.765         	7.870641e-05	5.739181e-05	8.760681e-05	5.218086e-05
0.77          	7.467248e-05	5.466389e-05	8.316970e-05	4.999104e-05
0.775         	7.088643e-05	5.211874e-05	7.899141e-05	4.794501e-05
0.78          	6.733673e-05	4.974274e-05	7.506143e-05	4.603044e-05
0.785         	6.401341e-05	4.752543e-05	7.136295e-05	4.423792e-05
0.79          	6.090011e-05	4.545466e-05	6.789043e-05	4.255707e-05
0.795         	5.799054e-05	4.352069e-05	6.463085e-05	4.097750e-05
0.8           	5.527866e-05	4.171218e-05	6.157032e-05	3.949304e-05
0.805         	5.274808e-05	4.001798e-05	5.869854e-05	3.809436e-05
0.81          	5.037808e-05	3.843455e-05	5.600383e-05	3.677148e-05
0.815         	4.816054e-05	3.695167e-05	5.347429e-05	3.551943e-05
0.82          	4.608828e-05	3.556404e-05	5.110876e-05	3.433215e-05
0.825         	4.414739e-05	3.426020e-05	4.889005e-05	3.320364e-05
0.83          	4.232846e-05	3.303369e-05	4.681121e-05	3.212939e-05
0.835         	4.062558e-05	3.187622e-05	4.485762e-05	3.110596e-05
0.84          	3.902878e-05	3.078006e-05	4.301951e-05	3.012899e-05
0.845         	3.752534e-05	2.973501e-05	4.128658e-05	2.919324e-05
0.85          	3.610525e-05	2.873824e-05	3.964740e-05	2.829549e-05
0.855         	3.476200e-05	2.778325e-05	3.809353e-05	2.743107e-05
0.86          	3.348965e-05	2.686787e-05	3.662221e-05	2.659623e-05
0.865         	3.228506e-05	2.598949e-05	3.522783e-05	2.578858e-05
0.87          	3.114377e-05	2.514786e-05	3.390437e-05	2.500726e-05
0.875         	3.005951e-05	2.434160e-05	3.264585e-05	2.425106e-05
0.88          	2.902655e-05	2.356704e-05	3.144767e-05	2.351908e-05
0.885         	2.804197e-05	2.282113e-05	3.030674e-05	2.281035e-05
0.89          	2.710070e-05	2.209777e-05	2.921258e-05	2.212251e-05
0.895         	2.620349e-05	2.140086e-05	2.817199e-05	2.145743e-05
0.9           	2.534322e-05	2.072634e-05	2.717537e-05	2.081317e-05
0.905         	2.451652e-05	2.007157e-05	2.621963e-05	2.018851e-05
0.91          	2.372062e-05	1.943571e-05	2.530343e-05	1.958246e-05
0.915         	2.295378e-05	1.881813e-05	2.442475e-05	1.899405e-05
0.92          	2.221459e-05	1.821884e-05	2.358169e-05	1.842276e-05
0.925         	2.150181e-05	1.763839e-05	2.277162e-05	1.786801e-05
0.93          	2.081345e-05	1.707727e-05	2.199235e-05	1.732936e-05
0.935         	2.014877e-05	1.653479e-05	2.124219e-05	1.680643e-05
0.94          	1.950617e-05	1.601012e-05	2.051962e-05	1.629897e-05
0.945         	1.888501e-05	1.550278e-05	1.982313e-05	1.580673e-05
0.95          	1.828585e-05	1.501519e-05	1.915690e-05	1.533092e-05
0.955         	1.770478e-05	1.454178e-05	1.850939e-05	1.486957e-05
0.96          	1.714263e-05	1.408261e-05	1.788410e-05	1.442259e-05
0.965         	1.659862e-05	1.363761e-05	1.728073e-05	1.398947e-05
0.97          	1.607239e-05	1.320676e-05	1.669885e-05	1.356956e-05
0.975         	1.556310e-05	1.278997e-05	1.613746e-05	1.316221e-05
0.98          	1.507051e-05	1.238704e-05	1.559582e-05	1.276687e-05
0.985         	1.459381e-05	1.199733e-05	1.507317e-05	1.238311e-05
0.99          	1.413256e-05	1.162046e-05	1.456857e-05	1.201051e-05
0.995         	1.368644e-05	1.125657e-05	1.408135e-05	1.164873e-05
1             	1.325487e-05	1.090517e-05	1.361109e-05	1.129754e-05
1.005         	1.283741e-05	1.056573e-05	1.315742e-05	1.095659e-05
1.01          	1.243393e-05	1.023790e-05	1.272044e-05	1.062574e-05
1.015         	1.204412e-05	9.921115e-06	1.229934e-05	1.030469e-05
1.02          	1.166678e-05	9.613408e-06	1.189064e-05	9.992616e-06
1.025         	1.130326e-05	9.317228e-06	1.149970e-05	9.690249e-06
1.03          	1.095159e-05	9.031079e-06	1.112309e-05	9.397048e-06
1.035         	1.061149e-05	8.754090e-06	1.075959e-05	9.112752e-06
1.04          	1.028260e-05	8.485853e-06	1.040882e-05	8.837115e-06
1.045         	9.964726e-06	8.226020e-06	1.007063e-05	8.569964e-06
1.05          	9.657267e-06	7.974491e-06	9.745134e-06	8.310980e-06
1.055         	9.360179e-06	7.731040e-06	9.432083e-06	8.059928e-06
1.06          	9.073072e-06	7.495535e-06	9.130741e-06	7.816635e-06
1.065         	8.795504e-06	7.267803e-06	8.840389e-06	7.580967e-06
1.07          	8.527740e-06	7.048810e-06	8.562730e-06	7.353166e-06
1.075         	8.267873e-06	6.835958e-06	8.292925e-06	7.132305e-06
1.08          	8.016458e-06	6.629408e-06	8.032332e-06	6.918321e-06
1.085         	7.773236e-06	6.429156e-06	7.781434e-06	6.711016e-06
1.09          	7.537882e-06	6.235159e-06	7.539831e-06	6.510123e-06
1.095         	7.310195e-06	6.047304e-06	7.306930e-06	6.315390e-06
1.1           	7.089740e-06	5.865419e-06	7.082035e-06	6.126586e-06
1.105         	6.876320e-06	5.689246e-06	6.864837e-06	5.943483e-06
1.11          	6.669590e-06	5.518517e-06	6.655023e-06	5.765880e-06
1.115         	6.469471e-06	5.353012e-06	6.452189e-06	5.593578e-06
1.12          	6.275584e-06	5.192535e-06	6.256102e-06	5.426395e-06
1.125         	6.087626e-06	5.036920e-06	6.066507e-06	5.264175e-06
1.13          	5.905405e-06	4.886002e-06	5.883070e-06	5.106743e-06
1.135         	5.728784e-06	4.739615e-06	5.705528e-06	4.953939e-06
1.14          	5.557189e-06	4.596876e-06	5.532360e-06	4.805382e-06
1.145         	5.391382e-06	4.459137e-06	5.366208e-06	4.661347e-06
1.15          	5.230601e-06	4.325797e-06	5.205236e-06	4.521579e-06
1.155         	5.074581e-06	4.196479e-06	5.048948e-06	4.385965e-06
1.16          	4.923481e-06	4.071604e-06	4.898591e-06	4.254658e-06
1.165         	4.776339e-06	3.949713e-06	4.751221e-06	4.127200e-06
1.17          	4.633531e-06	3.831087e-06	4.608232e-06	4.003585e-06
1.175         	4.495023e-06	3.715900e-06	4.469879e-06	3.883693e-06
1.18          	4.360691e-06	3.604235e-06	4.335974e-06	3.767387e-06
1.185         	4.230398e-06	3.496082e-06	4.206189e-06	3.654546e-06
1.19          	4.103996e-06	3.391338e-06	4.080268e-06	3.545079e-06
1.195         	3.981360e-06	3.289844e-06	3.958037e-06	3.438908e-06
1.2           	3.862377e-06	3.191434e-06	3.839391e-06	3.335950e-06
1.205         	3.746946e-06	3.095959e-06	3.724260e-06	3.236114e-06
1.21          	3.634965e-06	3.003304e-06	3.612586e-06	3.139302e-06
1.215         	3.526335e-06	2.913382e-06	3.504295e-06	3.045410e-06
1.22          	3.420958e-06	2.826122e-06	3.399298e-06	2.954332e-06
1.225         	3.318735e-06	2.741465e-06	3.297492e-06	2.865967e-06
1.23          	3.219562e-06	2.659346e-06	3.198767e-06	2.780223e-06
1.235         	3.123345e-06	2.579696e-06	3.103017e-06	2.697014e-06
1.24          	3.029989e-06	2.502442e-06	3.010138e-06	2.616266e-06
1.245         	2.939407e-06	2.427507e-06	2.920036e-06	2.537910e-06
1.25          	2.851511e-06	2.354816e-06	2.832623e-06	2.461879e-06
1.255         	2.766225e-06	2.284297e-06	2.747818e-06	2.388111e-06
1.26          	2.683472e-06	2.215884e-06	2.665542e-06	2.316546e-06
1.265         	2.603178e-06	2.149515e-06	2.585719e-06	2.247121e-06
1.27          	2.525276e-06	2.085129e-06	2.508278e-06	2.179778e-06
1.275         	2.449695e-06	2.022672e-06	2.433149e-06	2.114457e-06
1.28          	2.376371e-06	1.962088e-06	2.360262e-06	2.051098e-06
1.285         	2.305239e-06	1.903321e-06	2.289553e-06	1.989644e-06
1.29          	2.236236e-06	1.846318e-06	2.220958e-06	1.930039e-06
1.295         	2.169300e-06	1.791026e-06	2.154415e-06	1.872228e-06
1.3           	2.104369e-06	1.737393e-06	2.089865e-06	1.816155e-06
1.305         	2.041384e-06	1.685369e-06	2.027249e-06	1.761768e-06
1.31          	1.980287e-06	1.634904e-06	1.966511e-06	1.709015e-06
1.315         	1.921021e-06	1.585951e-06	1.907595e-06	1.657844e-06
1.32          	1.863530e-06	1.538465e-06	1.850447e-06	1.608206e-06
1.325         	1.807761e-06	1.492400e-06	1.795014e-06	1.560055e-06
1.33          	1.753660e-06	1.447713e-06	1.741245e-06	1.513343e-06
1.335         	1.701177e-06	1.404364e-06	1.689090e-06	1.468028e-06
1.34          	1.650264e-06	1.362312e-06	1.638498e-06	1.424066e-06
1.345         	1.600871e-06	1.321517e-06	1.589423e-06	1.381418e-06
1.35          	1.552955e-06	1.281943e-06	1.541819e-06	1.340045e-06
1.355         	1.506469e-06	1.243552e-06	1.495640e-06	1.299908e-06
1.36          	1.461373e-06	1.206310e-06	1.450844e-06	1.260972e-06
1.365         	1.417624e-06	1.170183e-06	1.407389e-06	1.223201e-06
1.37          	1.375182e-06	1.135138e-06	1.365235e-06	1.186561e-06
1.375         	1.334010e-06	1.101142e-06	1.324342e-06	1.151019e-06
1.38          	1.294069e-06	1.068165e-06	1.284674e-06	1.116542e-06
1.385         	1.255324e-06	1.036176e-06	1.246194e-06	1.083099e-06
1.39          	1.217738e-06	1.005146e-06	1.208866e-06	1.050658e-06
1.395         	1.181278e-06	9.750462e-07	1.172656e-06	1.019191e-06
1.4           	1.145911e-06	9.458485e-07	1.137531e-06	9.886666e-07
1.405         	1.111603e-06	9.175256e-07	1.103459e-06	9.590576e-07
1.41          	1.078323e-06	8.900513e-07	1.070408e-06	9.303361e-07
1.415         	1.046040e-06	8.633998e-07	1.038347e-06	9.024752e-07
1.42          	1.014724e-06	8.375464e-07	1.007248e-06	8.754488e-07
1.425         	9.843466e-07	8.124669e-07	9.770805e-07	8.492318e-07
