# Wall shear stress
# Time        	patch         	min           	max           
1.500000e+00	Wall	(-2.982127e-03 -3.059021e-03 -1.350744e-03)	(1.772290e-03 1.617763e-03 1.911809e-03)
