# Wall shear stress
# Time        	patch         	min           	max           
3.000000e+00	Wall	(-2.978401e-03 -3.059021e-03 -1.350744e-03)	(1.644417e-03 1.581967e-03 1.917438e-03)
