# Wall shear stress
# Time        	patch         	min           	max           
0.000000e+00	Wall	(-7.197266e-04 -1.338767e-04 -7.134153e-04)	(6.628648e-04 2.795549e-04 7.050977e-04)
