# Wall shear stress
# Time        	patch         	min           	max           
2.000000e+00	Wall	(-2.991343e-03 -3.059021e-03 -1.350744e-03)	(1.756666e-03 1.599118e-03 1.895966e-03)
