# Wall shear stress
# Time        	patch         	min           	max           
4.750000e+00	Wall	(-2.954386e-03 -3.059021e-03 -1.350744e-03)	(1.513804e-03 1.766103e-03 2.120948e-03)
