# Wall shear stress
# Time        	patch         	min           	max           
3.500000e+00	Wall	(-2.967238e-03 -3.059021e-03 -1.350744e-03)	(1.600847e-03 1.584103e-03 2.004529e-03)
