# Wall shear stress
# Time        	patch         	min           	max           
6.250000e+00	Wall	(-2.951738e-03 -3.059021e-03 -1.350744e-03)	(1.457407e-03 1.856450e-03 2.134632e-03)
