# Wall shear stress
# Time        	patch         	min           	max           
4.000000e+00	Wall	(-2.960475e-03 -3.059021e-03 -1.350744e-03)	(1.565581e-03 1.672307e-03 2.071630e-03)
