# Wall shear stress
# Time        	patch         	min           	max           
8.500000e+00	Wall	(-2.948192e-03 -3.059021e-03 -1.350744e-03)	(1.431281e-03 1.878873e-03 2.138232e-03)
