# Wall shear stress
# Time        	patch         	min           	max           
2.500000e+00	Wall	(-2.992592e-03 -3.059021e-03 -1.350744e-03)	(1.699670e-03 1.595454e-03 1.886688e-03)
