# Wall shear stress
# Time        	patch         	min           	max           
6.000000e+00	Wall	(-2.951958e-03 -3.059021e-03 -1.350744e-03)	(1.463188e-03 1.849355e-03 2.134049e-03)
