# Wall shear stress
# Time        	patch         	min           	max           
7.500000e-01	Wall	(-3.105401e-03 -3.059021e-03 -1.350744e-03)	(1.712059e-03 1.602484e-03 1.856370e-03)
