# Wall shear stress
# Time        	patch         	min           	max           
1.000000e+01	Wall	(-2.946383e-03 -3.059021e-03 -1.350744e-03)	(1.427354e-03 1.881086e-03 2.139057e-03)
