# Wall shear stress
# Time        	patch         	min           	max           
5.000000e-01	Wall	(-2.953866e-03 -3.059021e-03 -1.350744e-03)	(1.454891e-03 1.613026e-03 2.124159e-03)
