# Wall shear stress
# Time        	patch         	min           	max           
7.750000e+00	Wall	(-2.949473e-03 -3.059021e-03 -1.350744e-03)	(1.436082e-03 1.875785e-03 2.137337e-03)
