# Wall shear stress
# Time        	patch         	min           	max           
5.500000e+00	Wall	(-2.952437e-03 -3.059021e-03 -1.350744e-03)	(1.477636e-03 1.828051e-03 2.132211e-03)
