# Wall shear stress
# Time        	patch         	min           	max           
6.750000e+00	Wall	(-2.951141e-03 -3.059021e-03 -1.350744e-03)	(1.448038e-03 1.866168e-03 2.135617e-03)
