# Wall shear stress
# Time        	patch         	min           	max           
2.500000e-01	Wall	(-2.385349e-03 -3.059021e-03 -1.350744e-03)	(8.972220e-04 1.827040e-03 2.337786e-03)
