# Wall shear stress
# Time        	patch         	min           	max           
4.500000e+00	Wall	(-2.955873e-03 -3.059021e-03 -1.350744e-03)	(1.530645e-03 1.738106e-03 2.110711e-03)
