# Wall shear stress
# Time        	patch         	min           	max           
3.750000e+00	Wall	(-2.963562e-03 -3.059021e-03 -1.350744e-03)	(1.582788e-03 1.630552e-03 2.041457e-03)
