# Wall shear stress
# Time        	patch         	min           	max           
4.250000e+00	Wall	(-2.957892e-03 -3.059021e-03 -1.350744e-03)	(1.548180e-03 1.708537e-03 2.094666e-03)
