# Wall shear stress
# Time        	patch         	min           	max           
6.500000e+00	Wall	(-2.951475e-03 -3.059021e-03 -1.350744e-03)	(1.452376e-03 1.861924e-03 2.135132e-03)
