# Wall shear stress
# Time        	patch         	min           	max           
8.750000e+00	Wall	(-2.947817e-03 -3.059021e-03 -1.350744e-03)	(1.430237e-03 1.879502e-03 2.138438e-03)
