# Wall shear stress
# Time        	patch         	min           	max           
9.750000e+00	Wall	(-2.946620e-03 -3.059021e-03 -1.350744e-03)	(1.427706e-03 1.880910e-03 2.138974e-03)
