# Wall shear stress
# Time        	patch         	min           	max           
5.250000e+00	Wall	(-2.952804e-03 -3.059021e-03 -1.350744e-03)	(1.486767e-03 1.812295e-03 2.130331e-03)
