# Wall shear stress
# Time        	patch         	min           	max           
3.250000e+00	Wall	(-2.972003e-03 -3.059021e-03 -1.350744e-03)	(1.621103e-03 1.579039e-03 1.962714e-03)
