# Wall shear stress
# Time        	patch         	min           	max           
2.250000e+00	Wall	(-2.995159e-03 -3.059021e-03 -1.350744e-03)	(1.729617e-03 1.592979e-03 1.891060e-03)
