# Wall shear stress
# Time        	patch         	min           	max           
7.250000e+00	Wall	(-2.950349e-03 -3.059021e-03 -1.350744e-03)	(1.441089e-03 1.872106e-03 2.136539e-03)
