# Wall shear stress
# Time        	patch         	min           	max           
1.000000e+00	Wall	(-3.069188e-03 -3.059021e-03 -1.350744e-03)	(1.744897e-03 1.628224e-03 1.931667e-03)
