# Wall shear stress
# Time        	patch         	min           	max           
8.250000e+00	Wall	(-2.948596e-03 -3.059021e-03 -1.350744e-03)	(1.432586e-03 1.878077e-03 2.137961e-03)
