# Wall shear stress
# Time        	patch         	min           	max           
2.750000e+00	Wall	(-2.985954e-03 -3.059021e-03 -1.350744e-03)	(1.671020e-03 1.588282e-03 1.883619e-03)
