# Wall shear stress
# Time        	patch         	min           	max           
5.750000e+00	Wall	(-2.952178e-03 -3.059021e-03 -1.350744e-03)	(1.469867e-03 1.840116e-03 2.133320e-03)
