# Wall shear stress
# Time        	patch         	min           	max           
8.000000e+00	Wall	(-2.949027e-03 -3.059021e-03 -1.350744e-03)	(1.434164e-03 1.877067e-03 2.137670e-03)
