# Wall shear stress
# Time        	patch         	min           	max           
7.000000e+00	Wall	(-2.950766e-03 -3.059021e-03 -1.350744e-03)	(1.444291e-03 1.869491e-03 2.136093e-03)
