# Wall shear stress
# Time        	patch         	min           	max           
9.000000e+00	Wall	(-2.947469e-03 -3.059021e-03 -1.350744e-03)	(1.429374e-03 1.879995e-03 2.138602e-03)
