# Wall shear stress
# Time        	patch         	min           	max           
1.250000e+00	Wall	(-3.003675e-03 -3.059021e-03 -1.350744e-03)	(1.764751e-03 1.627719e-03 1.923821e-03)
