# Wall shear stress
# Time        	patch         	min           	max           
9.500000e+00	Wall	(-2.946870e-03 -3.059021e-03 -1.350744e-03)	(1.428137e-03 1.880677e-03 2.138870e-03)
