# Wall shear stress
# Time        	patch         	min           	max           
9.250000e+00	Wall	(-2.947148e-03 -3.059021e-03 -1.350744e-03)	(1.428693e-03 1.880378e-03 2.138768e-03)
