# Wall shear stress
# Time        	patch         	min           	max           
1.750000e+00	Wall	(-2.983097e-03 -3.059021e-03 -1.350744e-03)	(1.771469e-03 1.607319e-03 1.901402e-03)
