# Wall shear stress
# Time        	patch         	min           	max           
7.500000e+00	Wall	(-2.949918e-03 -3.059021e-03 -1.350744e-03)	(1.438376e-03 1.874163e-03 2.136961e-03)
