# Wall shear stress
# Time        	patch         	min           	max           
5.000000e+00	Wall	(-2.953404e-03 -3.059021e-03 -1.350744e-03)	(1.498334e-03 1.791927e-03 2.126966e-03)
