/*--------------------------------*- C++ -*----------------------------------*\
  =========                 |
  \\      /  F ield         | OpenFOAM: The Open Source CFD Toolbox
   \\    /   O peration     | Website:  https://openfoam.org
    \\  /    A nd           | Version:  7
     \\/     M anipulation  |
\*---------------------------------------------------------------------------*/
FoamFile
{
    version     2.0;
    format      ascii;
    class       volVectorField;
    location    "200";
    object      wallShearStress;
}
// * * * * * * * * * * * * * * * * * * * * * * * * * * * * * * * * * * * * * //

dimensions      [0 2 -2 0 0 0 0];

internalField   uniform (0 0 0);

boundaryField
{
    wall
    {
        type            calculated;
        value           nonuniform List<vector> 
73765
(
(8.06927e-11 -3.03804e-11 -5.01029e-11)
(2.17334e-10 -1.67589e-11 2.022e-10)
(-1.88596e-11 -1.69935e-11 2.62103e-12)
(-1.34727e-10 -3.33663e-10 2.05944e-10)
(-5.13004e-10 -1.05174e-09 4.65615e-10)
(4.17181e-11 3.52307e-11 2.87458e-10)
(-4.94685e-10 -1.03565e-10 5.43374e-10)
(-1.04846e-10 -2.4158e-11 9.88584e-11)
(-4.40915e-10 -1.38795e-09 1.93222e-10)
(1.14098e-10 6.06809e-11 4.1075e-10)
(-3.26248e-10 4.0307e-11 5.64975e-10)
(1.59535e-10 2.90688e-10 2.06348e-10)
(3.3396e-11 2.86134e-10 4.2613e-10)
(-1.40479e-10 -2.16011e-10 1.72611e-10)
(-3.03474e-10 -5.02432e-10 2.53501e-10)
(-1.03243e-09 -1.20145e-09 6.64858e-10)
(-7.21851e-10 -7.28089e-10 7.31141e-10)
(-5.29971e-10 -1.11695e-09 2.39771e-10)
(-8.8149e-11 -1.3618e-09 -3.38534e-12)
(-7.28357e-11 -1.30635e-09 1.77333e-10)
(-2.75296e-10 -1.28141e-09 4.62526e-10)
(-1.63163e-10 -1.06498e-09 6.4075e-11)
(-4.42164e-10 -8.99379e-10 2.41869e-10)
(-2.28967e-10 -8.02107e-10 1.67782e-11)
(4.54581e-11 9.2559e-11 2.6662e-10)
(4.12146e-11 7.68329e-11 1.7977e-10)
(1.74798e-10 2.54778e-11 3.36872e-10)
(2.73818e-10 -1.43941e-10 -1.3598e-10)
(1.48438e-11 6.78599e-12 -5.36067e-12)
(-1.18361e-10 -8.21494e-12 1.42469e-11)
(-1.17069e-10 3.97911e-12 2.50642e-11)
(-9.95599e-11 -4.3246e-11 -9.90371e-12)
(-1.69335e-10 -9.85538e-11 1.39879e-10)
(-7.73888e-11 -1.07394e-09 -2.45259e-10)
(-3.80657e-10 -1.71452e-09 -1.80389e-11)
(8.48554e-11 -9.7041e-10 2.13009e-12)
(-1.37489e-09 -1.72216e-09 7.17499e-10)
(-4.26286e-10 -1.04667e-09 2.4606e-10)
(-1.10465e-09 -1.48013e-09 9.14195e-10)
(2.7121e-11 8.61003e-12 7.77046e-11)
(1.01782e-10 1.07245e-10 2.81808e-10)
(6.55147e-11 1.3757e-12 1.02107e-10)
(2.97941e-11 2.50521e-11 1.53894e-10)
(2.17745e-10 1.62823e-10 4.16959e-10)
(2.05456e-10 1.10151e-10 2.86703e-10)
(1.62418e-10 6.53031e-11 2.93913e-10)
(2.96853e-10 -1.23971e-10 -1.0994e-10)
(2.04454e-10 -9.97268e-11 -5.71937e-11)
(-1.7952e-10 -9.79441e-11 6.01424e-10)
(-2.38554e-10 -9.82131e-12 4.36544e-10)
(-1.10224e-10 -1.13217e-10 2.37135e-10)
(-1.57384e-10 -1.74053e-11 -7.34944e-11)
(4.01074e-11 3.55913e-12 3.10154e-11)
(-1.80841e-10 -2.43086e-11 6.84144e-11)
(-4.1703e-10 -7.47199e-10 3.52847e-10)
(-2.24049e-10 -4.47404e-10 2.56455e-10)
(-2.12012e-10 -5.69044e-10 3.32963e-10)
(6.06831e-11 -4.76228e-11 2.11455e-10)
(7.17398e-11 -1.27015e-10 1.7084e-10)
(2.88741e-10 -1.82267e-09 -1.10786e-10)
(2.08716e-10 -1.28787e-09 -7.80014e-11)
(1.29786e-10 -1.198e-09 -6.29412e-11)
(-7.50167e-10 -1.77469e-09 1.44924e-11)
(-2.62869e-10 -1.70561e-09 -1.03608e-10)
(-3.76826e-11 1.64087e-11 1.86081e-12)
(1.64751e-11 1.85288e-11 -2.30844e-11)
(1.45902e-11 2.05012e-11 -2.88081e-11)
(8.07295e-12 2.14606e-11 -3.25289e-11)
(-5.9521e-12 2.12646e-11 -3.69109e-11)
(1.89833e-10 -1.24358e-09 6.25981e-11)
(-6.57929e-10 -1.35078e-09 3.34363e-10)
(-4.03934e-10 -1.35467e-09 8.30909e-11)
(-1.07795e-09 -1.38169e-09 3.99152e-10)
(-1.02851e-09 -1.60409e-09 5.03662e-10)
(-7.51387e-10 -1.07264e-09 2.19532e-10)
(-5.54273e-10 -8.90904e-10 2.60676e-10)
(-6.17888e-10 -1.19174e-09 7.79676e-11)
(-8.93958e-10 -8.2284e-10 8.28892e-10)
(-1.18305e-09 -1.31055e-09 6.17617e-10)
(-6.03518e-10 -7.72782e-10 8.31654e-10)
(-4.7475e-10 -6.50667e-10 5.72947e-10)
(-1.31627e-10 -1.34958e-09 5.45006e-11)
(-2.47786e-10 -9.95375e-10 1.12054e-10)
(-4.04187e-10 -1.55549e-09 1.15394e-09)
(-3.0487e-10 -1.6644e-09 1.11333e-09)
(-4.39571e-10 -1.28049e-09 7.61529e-10)
(-3.8195e-10 -1.29394e-09 5.45373e-10)
(-1.96179e-10 -9.8894e-10 1.11212e-10)
(-1.00753e-09 -1.8367e-09 1.3096e-09)
(-5.27268e-10 -8.88538e-10 2.38099e-10)
(-5.04348e-10 -1.2187e-09 3.20791e-10)
(2.47788e-10 5.87703e-11 3.82557e-10)
(-2.23219e-10 7.08981e-11 4.01861e-10)
(-1.57036e-10 -1.61057e-09 -7.95459e-11)
(2.83842e-10 -1.67612e-09 -1.34177e-10)
(-3.70084e-10 -1.90776e-09 -4.59042e-11)
(-1.50182e-10 -2.18077e-11 6.77301e-10)
(-2.52081e-10 -3.61945e-11 4.96555e-10)
(-1.24035e-10 -3.43058e-11 2.10898e-11)
(-1.44483e-10 -1.08306e-09 7.8599e-11)
(3.20978e-11 6.33048e-11 1.43951e-10)
(-1.67145e-10 -4.0476e-11 5.11452e-10)
(-1.01876e-10 2.87122e-11 -8.74741e-11)
(4.11787e-11 -3.94846e-12 1.78674e-11)
(3.47037e-10 3.85876e-10 5.39981e-10)
(6.74518e-10 3.72877e-10 6.95425e-10)
(-1.51241e-10 -6.86674e-11 -7.20699e-12)
(-1.69783e-10 -1.43047e-10 1.46639e-10)
(-1.50576e-10 -1.4241e-10 1.5198e-10)
(-9.18766e-11 -3.19445e-12 3.92119e-12)
(-1.33584e-10 -1.56845e-11 3.13922e-11)
(1.35624e-10 -5.18003e-10 -3.21189e-11)
(-1.5599e-10 -1.25808e-09 -2.37401e-10)
(-1.18515e-10 -9.85099e-10 -2.19701e-10)
(-2.20608e-10 -1.50974e-09 -1.91856e-10)
(4.02834e-11 -8.00404e-11 1.77988e-10)
(-2.8154e-11 1.8067e-11 -1.66267e-11)
(-2.02772e-10 -7.85363e-10 -5.18633e-12)
(-6.13908e-10 -1.61199e-09 3.23271e-10)
(-4.46036e-10 -1.34038e-09 6.96175e-10)
(2.2127e-10 -9.35713e-12 2.05008e-10)
(2.22209e-10 -5.52776e-11 1.21646e-11)
(2.32923e-10 -1.39045e-10 -9.07123e-11)
(-1.7514e-10 -6.30033e-11 1.05111e-10)
(-1.96916e-10 -1.33554e-09 -2.31463e-10)
(-1.63692e-10 -1.00378e-09 -2.15348e-10)
(-2.69003e-11 -8.16889e-10 -2.08205e-11)
(-3.86308e-10 -1.75296e-09 9.29692e-12)
(-9.20193e-10 -1.50699e-09 6.3176e-10)
(-1.11171e-10 -8.59459e-10 2.3801e-12)
(-1.95368e-10 -8.28965e-10 -3.814e-11)
(9.11045e-11 9.2255e-11 3.51251e-10)
(1.00755e-10 9.96585e-11 3.17311e-10)
(2.31746e-10 -6.67797e-12 2.77481e-10)
(1.87997e-10 -1.63016e-11 2.79713e-10)
(3.40172e-10 -1.17266e-10 -8.56243e-11)
(3.2351e-10 -1.12638e-10 -4.32578e-11)
(2.60507e-10 -7.80176e-11 -1.82108e-11)
(2.74059e-10 -1.20224e-10 -2.14873e-11)
(2.38745e-10 -8.22531e-11 -3.37141e-11)
(2.70549e-10 -1.22845e-10 -6.55645e-11)
(2.48584e-10 -8.4906e-11 -2.75964e-11)
(1.89662e-10 -4.92496e-11 -1.72116e-11)
(1.4739e-10 -5.43579e-11 -2.35359e-11)
(1.96073e-10 -8.43366e-11 -3.12707e-11)
(1.78102e-10 -8.54208e-11 -1.74198e-11)
(1.79114e-10 -8.55037e-11 -1.01032e-10)
(-1.72974e-10 -8.1493e-11 6.53777e-10)
(-2.25497e-10 -7.10566e-11 6.80156e-10)
(-2.15313e-12 -9.91477e-13 -8.88308e-13)
(1.33673e-10 1.90658e-09 9.16468e-09)
(-1.4415e-10 -1.15692e-11 -7.22167e-11)
(-1.57731e-10 -1.85662e-11 -9.50602e-11)
(7.37607e-10 4.3471e-10 5.60389e-10)
(4.27929e-10 3.60579e-10 2.95732e-10)
(9.26061e-10 3.78574e-10 4.43426e-10)
(4.59374e-10 4.3515e-10 5.02595e-10)
(7.82695e-10 4.42449e-10 6.61197e-10)
(7.6063e-10 3.99861e-10 5.41429e-10)
(-1.41459e-10 -3.71444e-11 2.7451e-11)
(-1.72135e-10 -1.32384e-10 2.91456e-11)
(-1.89312e-10 -1.33831e-10 5.9888e-11)
(-1.26172e-10 -6.15819e-11 1.68102e-11)
(-9.63036e-11 1.46968e-11 2.84341e-11)
(-1.5931e-10 -1.97895e-10 2.21327e-11)
(-1.59151e-10 -2.74193e-10 1.93318e-10)
(-1.5824e-10 -1.50017e-10 7.77113e-12)
(-1.55032e-10 -2.14841e-10 4.07739e-11)
(-1.70425e-10 -2.21986e-11 9.45462e-11)
(-1.82739e-10 -3.04059e-11 4.59497e-11)
(-1.75691e-10 -4.29362e-11 6.96044e-11)
(-1.46326e-10 9.34352e-12 9.89386e-11)
(-1.69485e-10 -1.99197e-11 6.93406e-11)
(-1.80029e-10 -6.15854e-11 2.76116e-11)
(-1.38499e-10 -1.31861e-10 1.39663e-10)
(-2.08247e-10 -1.16887e-10 7.54119e-11)
(-1.01426e-10 -1.54881e-11 2.10056e-12)
(-3.81634e-10 -7.6618e-10 4.96596e-10)
(-1.44155e-10 -2.29373e-10 -4.80594e-11)
(1.0578e-10 -3.79901e-10 1.08382e-10)
(-1.07383e-10 -7.88483e-10 -1.7237e-10)
(-8.15983e-12 -6.56001e-10 1.81489e-11)
(9.80273e-11 -3.77979e-10 1.31692e-10)
(-1.44599e-10 -9.62738e-13 1.0858e-10)
(-1.68351e-10 -1.22973e-11 1.0786e-10)
(-7.71428e-11 4.936e-14 1.20121e-10)
(-1.68823e-10 -4.24185e-11 1.20783e-10)
(-1.42612e-10 -1.01108e-10 1.2434e-10)
(-1.39447e-10 -6.02164e-11 3.0605e-11)
(-7.60285e-11 -2.02419e-10 1.82054e-10)
(-2.44786e-10 -2.18449e-09 -4.01363e-10)
(-8.14476e-11 -8.03234e-10 -1.22026e-10)
(-6.68336e-11 -3.90041e-12 1.31298e-10)
(1.05606e-10 -9.99698e-10 -1.05445e-10)
(-5.37769e-10 -2.44567e-09 -1.08485e-10)
(-1.84801e-10 -1.49505e-09 -1.48783e-10)
(-7.40711e-10 -1.63939e-09 6.90249e-12)
(-7.38411e-10 -1.78673e-09 1.22012e-11)
(-1.83933e-12 2.21453e-11 -3.55555e-11)
(-1.32245e-09 -1.69374e-09 3.66389e-10)
(-1.00367e-09 -1.69177e-09 7.60688e-10)
(-6.77135e-10 -1.90016e-09 3.27856e-10)
(-5.01976e-10 -1.36446e-09 6.62338e-11)
(-1.24027e-09 -1.72853e-09 1.16694e-09)
(-5.90184e-10 -7.69602e-10 3.92552e-10)
(-1.34307e-09 -1.80565e-09 6.22915e-10)
(-1.59882e-10 -1.36753e-09 2.32847e-10)
(-4.3477e-11 -8.14938e-10 5.94688e-11)
(-1.68879e-10 -1.74235e-09 3.67561e-10)
(-8.94913e-11 -1.15658e-09 2.19028e-11)
(-8.18114e-10 -1.26848e-09 3.97066e-10)
(-9.25207e-10 -1.81346e-09 5.6172e-10)
(-7.53975e-10 -1.38032e-09 4.20747e-10)
(-2.23696e-10 1.3335e-10 4.07336e-10)
(-1.50366e-11 -2.19581e-11 7.88809e-12)
(-2.48879e-10 -6.68671e-12 5.09796e-10)
(-2.15784e-10 -2.00462e-09 -4.05616e-10)
(-4.89313e-10 -1.75868e-09 2.50034e-11)
(-1.26513e-10 -4.11269e-11 4.17196e-10)
(3.11391e-10 -7.58796e-11 -3.13354e-11)
(-4.68948e-10 -1.74171e-09 4.87304e-11)
(-5.68841e-10 -1.17048e-09 4.92691e-10)
(2.96058e-10 1.41696e-10 3.2051e-10)
(2.35326e-10 -1.02549e-10 -2.50051e-11)
(2.21949e-10 -7.67679e-11 -3.03709e-11)
(1.02459e-11 3.13987e-12 -7.35528e-12)
(-9.47613e-11 -6.91465e-10 6.08575e-11)
(1.53127e-10 -7.74216e-11 -5.72755e-11)
(-3.70675e-10 -6.85422e-11 6.60556e-10)
(-8.72293e-11 2.53983e-11 -7.5587e-11)
(5.99163e-11 1.7358e-11 4.27492e-11)
(-1.68155e-10 -1.76899e-10 7.16684e-11)
(-1.63507e-10 -1.74345e-10 6.73939e-11)
(-6.12224e-11 1.95343e-12 1.27584e-10)
(7.9497e-12 4.99381e-13 -1.92656e-11)
(-6.05996e-13 1.42314e-12 -9.15598e-13)
(2.69423e-10 -5.82551e-11 3.08142e-10)
(4.89151e-11 8.61235e-13 7.05872e-11)
(3.67223e-12 -5.58525e-11 -1.13044e-10)
(5.79116e-12 6.03547e-12 3.46437e-11)
(1.18119e-11 3.0764e-12 -4.76627e-12)
(5.97807e-11 -7.77342e-12 4.35625e-11)
(2.14712e-10 -6.98691e-11 2.13695e-10)
(1.95467e-10 -3.78393e-11 3.16422e-10)
(-1.07103e-10 2.63482e-11 1.1922e-10)
(1.88406e-11 3.09074e-12 -3.93228e-11)
(-2.77962e-11 -1.30749e-11 -1.12717e-11)
(-1.65455e-11 -1.36731e-11 -1.67478e-12)
(-4.44429e-11 -1.62092e-10 3.49376e-10)
(3.19288e-10 -1.1488e-10 -1.04186e-10)
(1.74455e-10 -7.33302e-11 -2.87747e-11)
(-1.9041e-10 -6.3327e-11 3.83516e-10)
(1.23918e-11 1.39335e-12 -6.72347e-12)
(-2.66764e-11 -6.57129e-12 -1.00739e-11)
(-4.74843e-11 -5.18455e-12 -2.88165e-11)
(6.09364e-11 5.60446e-11 1.18393e-10)
(-6.21704e-11 -3.06537e-10 2.30631e-10)
(6.06159e-11 9.52071e-11 1.47772e-10)
(-2.02653e-11 -4.24191e-11 1.18364e-10)
(-9.71181e-10 -2.32693e-09 6.13839e-11)
(4.13613e-11 2.18289e-11 6.51827e-11)
(6.15752e-11 1.07652e-10 2.84288e-10)
(1.96576e-11 1.02495e-10 3.01056e-10)
(7.70884e-11 -3.25489e-11 -5.21959e-11)
(1.67715e-11 -3.01668e-12 -8.84436e-12)
(4.10244e-12 5.09706e-13 -3.96067e-12)
(-1.08136e-13 1.33314e-12 -1.27636e-12)
(-1.70696e-10 1.18037e-12 4.6926e-10)
(-1.54081e-10 3.84977e-11 4.4309e-10)
(-1.62212e-10 6.74627e-11 4.63322e-10)
(-3.94583e-12 -2.00531e-13 2.62558e-12)
(-7.54986e-12 2.222e-12 1.34982e-12)
(-9.84612e-12 2.39439e-12 1.04738e-12)
(-9.28848e-12 2.4175e-12 1.15678e-12)
(-1.21156e-10 1.05838e-11 3.70099e-10)
(-4.94108e-12 9.10392e-13 1.06878e-12)
(5.81174e-11 -7.7067e-12 4.23279e-11)
(-1.46861e-10 3.71175e-11 4.09757e-10)
(6.46739e-11 -9.14368e-12 4.63435e-11)
(7.05014e-11 -1.21306e-11 5.18164e-11)
(-4.88215e-10 -7.27017e-12 -1.07785e-10)
(-5.71173e-11 2.72215e-11 2.33446e-10)
(-5.5183e-11 2.57181e-11 2.12271e-10)
(-6.54185e-12 -5.71493e-13 3.55368e-11)
(-1.30259e-10 -1.79146e-11 -4.2363e-11)
(-1.41503e-10 -2.51712e-12 -6.05191e-11)
(1.01032e-10 -1.09247e-11 -2.75159e-11)
(-9.2007e-11 2.31311e-11 -7.87696e-11)
(-2.50993e-10 1.94339e-11 2.45278e-10)
(-4.82541e-11 -6.39684e-12 -2.52676e-11)
(1.3394e-11 -1.14005e-11 1.98611e-11)
(-3.0023e-11 -1.58722e-11 -1.44693e-11)
(-1.85034e-11 -1.5726e-11 -5.05182e-12)
(5.91045e-11 6.2474e-11 1.15656e-10)
(5.82398e-11 7.40613e-11 1.22255e-10)
(-3.19978e-11 -1.30931e-10 1.87496e-10)
(-9.18444e-11 -1.62771e-10 2.16696e-10)
(-2.87582e-11 -9.95932e-11 2.69613e-11)
(-6.25447e-11 -3.45984e-10 3.8289e-11)
(-4.72452e-11 -1.37589e-10 1.50339e-11)
(-1.326e-10 -5.82274e-10 2.59383e-10)
(-1.85212e-11 -1.0174e-11 -5.78124e-12)
(-1.28898e-11 -1.0066e-11 -3.28944e-12)
(4.22006e-11 4.09807e-11 9.88249e-11)
(3.8544e-11 6.37585e-11 1.40336e-10)
(4.21609e-11 7.26336e-12 7.97182e-11)
(1.1043e-10 -2.28579e-11 4.33505e-10)
(8.30532e-11 8.30243e-11 3.46404e-10)
(5.41256e-11 8.33526e-11 2.18486e-10)
(2.9177e-11 3.63341e-11 1.28611e-10)
(4.32389e-11 2.64223e-11 7.29138e-11)
(3.81796e-11 7.23626e-11 1.26757e-10)
(2.32483e-10 6.92616e-11 3.55108e-10)
(1.62249e-10 9.81218e-11 3.88487e-10)
(3.59533e-11 9.76968e-11 2.38659e-10)
(4.03765e-11 4.76999e-11 8.65975e-11)
(2.25e-10 9.7139e-11 3.71733e-10)
(1.5674e-11 1.05634e-10 1.9699e-10)
(3.97075e-11 -2.32342e-12 6.89332e-11)
(1.78797e-10 -4.77561e-11 2.96987e-10)
(2.0777e-10 8.51807e-11 3.4281e-10)
(8.41135e-11 8.08134e-11 3.05451e-10)
(3.18735e-11 -4.11129e-12 9.56029e-11)
(3.59523e-11 6.44411e-12 5.30235e-11)
(3.78319e-11 2.09938e-11 5.87898e-11)
(2.04875e-10 8.02179e-11 3.05011e-10)
(5.89634e-12 1.0683e-10 1.61846e-10)
(2.77083e-11 -4.13557e-12 1.06165e-10)
(2.17904e-10 -5.55033e-12 3.77597e-10)
(1.58045e-11 9.4234e-11 2.6512e-10)
(2.33474e-11 -1.91787e-12 1.05521e-10)
(3.03293e-11 -5.09551e-12 5.84621e-11)
(2.04727e-10 -4.26562e-11 3.21778e-10)
(3.71237e-11 1.45217e-11 5.5488e-11)
(1.60836e-10 2.40709e-11 2.25863e-10)
(1.17534e-11 9.60297e-11 1.3418e-10)
(5.83954e-11 7.07376e-11 3.36427e-10)
(-1.59797e-11 8.02268e-11 2.69756e-10)
(-3.34291e-11 1.06211e-10 2.15903e-10)
(1.1895e-11 1.00923e-10 2.71186e-10)
(2.13432e-11 -1.88402e-13 1.17133e-10)
(4.31885e-11 3.26026e-11 7.65955e-11)
(2.18355e-10 8.18772e-11 2.82629e-10)
(6.35266e-11 5.58058e-11 3.33276e-10)
(-2.13668e-11 9.70613e-11 1.64029e-10)
(-1.75228e-11 7.6906e-11 2.11618e-10)
(1.72486e-11 3.83815e-12 1.17448e-10)
(9.55432e-11 1.0152e-10 3.29968e-10)
(3.24602e-11 -5.06016e-12 5.95425e-11)
(2.18586e-10 2.2511e-12 3.86403e-10)
(2.338e-10 -5.80831e-11 3.72689e-10)
(1.8599e-10 2.8374e-11 2.62067e-10)
(5.21258e-11 5.58428e-11 1.10841e-10)
(2.41165e-10 8.5318e-11 3.00934e-10)
(7.55756e-11 3.57465e-11 3.3904e-10)
(-2.56826e-11 8.16523e-11 2.08189e-10)
(2.069e-11 8.1574e-12 1.27992e-10)
(3.0492e-11 2.08134e-12 1.0643e-10)
(4.33317e-11 -6.06464e-12 6.68464e-11)
(6.63991e-11 2.28365e-11 1.01585e-10)
(1.03691e-10 5.03192e-11 4.35511e-10)
(-8.9511e-12 8.07648e-11 1.25689e-10)
(-2.82037e-11 5.21848e-11 1.6068e-10)
(-1.35925e-11 3.26297e-11 1.49956e-10)
(5.34068e-12 2.13243e-11 1.39112e-10)
(2.2364e-11 1.30345e-11 1.30963e-10)
(3.70248e-11 6.68937e-12 1.17352e-10)
(2.89003e-10 -5.04851e-11 7.82463e-10)
(9.48652e-11 4.9911e-11 1.57291e-10)
(1.03245e-10 -1.76861e-10 -1.3552e-10)
(2.08695e-11 7.26572e-11 1.25752e-10)
(-1.24842e-11 3.3074e-11 1.35985e-10)
(7.0167e-12 2.29188e-11 1.34173e-10)
(2.92657e-11 1.58019e-11 1.29185e-10)
(4.35162e-11 1.09383e-11 1.24048e-10)
(-2.00119e-11 1.29022e-10 1.98526e-10)
(5.85093e-11 -2.25075e-12 9.78326e-11)
(9.14863e-11 2.36241e-12 1.24713e-10)
(4.87203e-10 -1.83234e-10 -1.18972e-10)
(1.95335e-10 5.47441e-11 2.23443e-10)
(4.45022e-10 -1.68948e-10 -9.15323e-11)
(4.11006e-10 -1.50521e-10 -8.70923e-11)
(4.00049e-10 -1.64112e-10 -1.40484e-10)
(-3.70513e-11 2.74871e-12 1.21932e-11)
(-2.25484e-11 1.83402e-11 4.48787e-11)
(1.40207e-11 2.28405e-11 1.1707e-10)
(3.47752e-11 1.77306e-11 1.23889e-10)
(3.65697e-10 -1.60322e-10 -7.97153e-11)
(8.67588e-11 5.30192e-11 1.45683e-10)
(2.27651e-10 -1.86487e-10 -2.09053e-10)
(1.49066e-10 -1.67898e-10 -2.26089e-10)
(7.82419e-11 -1.39654e-10 -2.14541e-10)
(2.45381e-11 -8.88952e-11 -1.62323e-10)
(-2.63437e-13 -4.36011e-11 -9.75914e-11)
(-7.10388e-12 -1.20411e-11 -3.0709e-11)
(-4.08906e-12 4.43109e-12 2.08199e-11)
(8.34995e-12 1.77881e-11 4.64905e-11)
(-3.27143e-11 5.74114e-11 6.4053e-11)
(1.0444e-10 5.96875e-13 1.30535e-10)
(2.03782e-10 5.97497e-11 2.11716e-10)
(1.3151e-10 3.98681e-11 1.63556e-10)
(1.19872e-11 3.75484e-12 2.27943e-11)
(1.53484e-10 1.85022e-11 1.42946e-10)
(3.26379e-10 -4.99711e-11 -3.12517e-10)
(3.52703e-10 -7.96653e-11 -1.66676e-10)
(1.97935e-10 4.38242e-11 2.04e-10)
(5.13826e-11 3.97466e-12 6.21712e-11)
(2.03408e-10 -9.65591e-11 -8.64978e-11)
(2.418e-11 -6.86921e-12 5.50204e-12)
(1.24851e-10 1.052e-11 1.24867e-10)
(1.15487e-10 -3.02429e-11 -2.50596e-10)
(1.73371e-10 3.62245e-11 1.58536e-10)
(1.9847e-10 4.42705e-11 1.87978e-10)
(7.87151e-11 3.31614e-12 8.26219e-11)
(1.61e-10 -8.26616e-11 -1.15366e-10)
(1.40418e-10 -7.55421e-11 -1.31049e-10)
(1.12267e-10 -6.51119e-11 -1.40924e-10)
(1.41508e-10 1.69675e-11 1.33807e-10)
(1.02046e-10 -3.42223e-11 -1.84728e-10)
(1.96459e-10 -2.49446e-11 -1.65888e-10)
(1.0322e-10 1.07262e-12 9.75128e-11)
(8.99618e-11 -4.13456e-11 -1.07048e-10)
(7.30867e-11 -3.03185e-11 -1.01724e-10)
(6.67991e-11 -1.71314e-11 1.31812e-11)
(7.5232e-11 -2.96395e-11 -1.27298e-10)
(1.62811e-10 2.67381e-11 1.41956e-10)
(1.4893e-10 -2.89941e-11 -9.22627e-11)
(1.85546e-10 5.66737e-12 1.69167e-10)
(1.06344e-10 -1.14975e-12 9.40606e-11)
(1.27835e-10 -2.07867e-14 1.1318e-10)
(6.20695e-11 -1.68981e-11 -7.81267e-11)
(8.7622e-11 -1.24302e-11 4.29425e-11)
(1.62348e-10 2.12227e-11 1.31145e-10)
(4.38959e-11 -3.36001e-11 -7.14391e-11)
(1.07189e-10 -2.94982e-11 -7.86596e-11)
(2.09702e-10 1.62215e-12 1.83154e-10)
(4.93079e-11 -7.50745e-12 -6.31721e-13)
(8.61713e-11 3.92858e-12 3.40639e-11)
(1.18413e-10 -1.42705e-12 1.00955e-10)
(4.90684e-11 -7.57568e-12 -5.57669e-11)
(1.07071e-10 -1.16239e-11 5.96649e-11)
(1.79465e-10 2.12311e-11 1.47409e-10)
(3.65923e-11 -2.633e-11 -3.43502e-11)
(6.53839e-11 -2.36488e-11 -1.06793e-11)
(8.06193e-11 -3.15598e-11 -6.79845e-11)
(6.57381e-11 -2.95861e-11 -7.00762e-11)
(2.34786e-10 3.96103e-11 2.18685e-10)
(2.20736e-10 -7.08753e-13 1.8902e-10)
(2.80839e-11 -2.5604e-12 -1.12747e-11)
(7.2071e-11 -1.27314e-11 1.45098e-11)
(8.43294e-11 3.54415e-12 3.97e-11)
(8.44914e-11 2.36476e-13 5.0256e-11)
(1.28211e-10 -3.06312e-12 1.06061e-10)
(1.20226e-10 -1.14357e-11 7.07225e-11)
(8.05103e-11 -2.58109e-11 2.6276e-11)
(4.79916e-11 -2.72989e-11 -4.9464e-11)
(4.02926e-11 -2.64337e-11 -4.6263e-11)
(2.03163e-10 4.27314e-11 1.76294e-10)
(2.49155e-10 4.39034e-11 2.28115e-10)
(2.38743e-10 -3.50338e-12 2.01609e-10)
(2.00714e-11 1.34051e-13 -1.3271e-11)
(2.62022e-11 -5.6895e-12 -4.35654e-13)
(8.1557e-11 -1.91335e-13 5.14616e-11)
(8.77071e-11 -8.91034e-13 6.14515e-11)
(1.43639e-10 -4.37805e-12 1.12586e-10)
(2.91847e-11 -4.67189e-13 -2.9781e-11)
(1.36321e-10 -1.36597e-11 7.82544e-11)
(2.0746e-10 2.20385e-11 1.52994e-10)
(8.28756e-11 -1.80758e-11 3.93091e-11)
(2.00423e-10 3.51211e-11 1.6009e-10)
(1.73884e-11 -1.81071e-11 -2.28372e-11)
(1.56102e-11 -1.40145e-11 -1.63437e-11)
(2.19771e-10 4.48674e-11 1.88759e-10)
(-2.63196e-10 -7.60966e-11 5.0942e-10)
(-2.57707e-10 -7.85616e-11 4.78184e-10)
(2.65494e-10 1.60597e-11 2.3667e-10)
(1.09236e-11 2.15266e-12 -1.07609e-11)
(8.33588e-11 -2.11327e-12 6.18254e-11)
(9.68916e-11 -1.65236e-12 7.3288e-11)
(1.06745e-10 -1.67463e-12 8.03653e-11)
(1.62461e-10 -6.80665e-12 1.2308e-10)
(1.6372e-11 8.81647e-13 -1.78291e-11)
(1.45526e-10 -1.51203e-11 8.22189e-11)
(2.0734e-10 2.26864e-11 1.49992e-10)
(2.26062e-10 4.19548e-11 1.82474e-10)
(-2.44485e-10 -7.45302e-11 4.83677e-10)
(2.49139e-10 4.92932e-11 2.1991e-10)
(2.80606e-10 1.7726e-11 2.47881e-10)
(-2.23671e-10 -4.6426e-11 3.91911e-10)
(2.32933e-12 3.17615e-12 -5.86529e-12)
(9.09085e-11 -2.86596e-12 7.06459e-11)
(1.01153e-10 -2.06631e-12 7.72159e-11)
(1.21523e-10 -8.48255e-13 9.12305e-11)
(1.63204e-10 -4.16051e-12 1.17513e-10)
(1.78299e-10 -7.62795e-12 1.28504e-10)
(-2.12192e-10 -8.45553e-12 4.64255e-10)
(7.24808e-12 1.58364e-12 -6.96343e-12)
(1.55895e-10 -1.74458e-11 8.59118e-11)
(2.3638e-10 2.9765e-11 1.64326e-10)
(-1.58105e-10 -6.54667e-11 4.24326e-10)
(-6.70249e-13 -4.30729e-12 -4.04389e-12)
(-1.15561e-12 -1.78235e-12 -1.43837e-12)
(2.42318e-12 1.9277e-12 2.36173e-12)
(2.29093e-11 4.83915e-12 1.00326e-11)
(2.49586e-10 4.98002e-11 2.22242e-10)
(-2.22066e-10 -8.28471e-11 4.35404e-10)
(-2.30037e-10 -7.5447e-11 4.15475e-10)
(2.83051e-10 1.3261e-11 2.45569e-10)
(-1.18367e-12 -2.46914e-12 3.2538e-12)
(6.17865e-11 -3.69147e-12 4.22437e-11)
(-1.96426e-10 -1.48489e-11 3.60674e-10)
(-2.95686e-12 3.76517e-12 -2.22993e-12)
(1.12093e-10 -1.61143e-12 8.55913e-11)
(1.25999e-10 -5.11844e-13 9.21673e-11)
(1.66395e-10 -4.63696e-12 1.1513e-10)
(1.83078e-10 -9.49872e-12 1.28207e-10)
(-2.10841e-10 8.92927e-12 4.53884e-10)
(-2.10951e-10 9.80628e-12 4.7135e-10)
(-2.34403e-10 1.74139e-11 5.15477e-10)
(-2.73627e-10 -2.07038e-12 4.75073e-10)
(1.69143e-10 -2.06293e-11 8.69316e-11)
(2.38328e-10 2.6502e-11 1.63971e-10)
(-1.78561e-10 -6.85198e-11 4.12053e-10)
(-1.44993e-10 -3.37139e-11 5.37827e-10)
(3.46522e-13 -3.56781e-12 -2.69504e-12)
(-2.58305e-12 -2.19901e-12 -1.40341e-12)
(-5.51228e-12 -1.07396e-12 -5.35372e-13)
(-7.75624e-12 1.0759e-13 1.49086e-13)
(-8.66231e-12 1.31748e-12 6.54731e-13)
(-7.21968e-12 2.36528e-12 1.05124e-12)
(3.69106e-12 3.51577e-12 1.99081e-12)
(-3.74359e-12 -2.38988e-13 6.81896e-13)
(4.29353e-11 -9.04129e-12 1.34836e-11)
(2.9608e-10 1.2585e-11 2.57519e-10)
(6.37865e-11 -5.36763e-12 4.88958e-11)
(1.19101e-10 -1.52685e-12 8.91862e-11)
(1.37594e-10 7.46722e-13 9.79298e-11)
(1.75344e-10 -5.85082e-12 1.20536e-10)
(1.97292e-10 -9.99618e-12 1.33994e-10)
(-1.96571e-10 1.46856e-11 4.37001e-10)
(-2.08028e-10 2.44357e-11 4.84009e-10)
(-2.4344e-10 2.84141e-11 5.45187e-10)
(-2.86774e-10 2.67771e-11 5.51648e-10)
(-2.94103e-10 1.88376e-11 6.67605e-10)
(-3.37036e-10 -4.40551e-11 5.33841e-10)
(-1.25107e-10 -2.75898e-11 5.02851e-10)
(-2.09352e-10 -6.43072e-11 3.96256e-10)
(-2.08545e-10 4.08328e-11 6.05096e-10)
(-2.00032e-10 -5.80426e-11 3.39075e-10)
(2.99691e-10 1.00144e-11 2.57845e-10)
(-4.09473e-12 1.51193e-12 1.00067e-12)
(6.83766e-11 -7.16236e-12 5.51588e-11)
(-1.75892e-10 -1.18531e-11 3.23728e-10)
(-2.39072e-10 8.83839e-11 5.3373e-10)
(1.29355e-10 7.05843e-13 9.15889e-11)
(1.44747e-10 1.12069e-12 1.01001e-10)
(1.84341e-10 -6.25593e-12 1.22853e-10)
(2.09435e-10 -1.37497e-11 1.36919e-10)
(-1.825e-10 1.3255e-11 3.90838e-10)
(-1.92706e-10 2.44276e-11 4.44812e-10)
(-2.49148e-10 4.45914e-11 5.57289e-10)
(-2.57827e-10 3.9797e-11 5.82014e-10)
(-2.26006e-10 2.69118e-11 5.79696e-10)
(-1.4653e-10 -5.8721e-11 3.41881e-10)
(-1.08385e-10 -1.17392e-11 4.54097e-10)
(-1.49843e-10 4.00648e-11 5.12145e-10)
(-1.95515e-10 -6.81571e-11 3.62774e-10)
(4.21868e-11 -4.6046e-12 3.02459e-11)
(4.99318e-11 -6.07033e-12 3.69537e-11)
(3.0972e-10 6.5172e-12 2.64496e-10)
(8.12695e-11 -6.6041e-12 6.67298e-11)
(1.40681e-10 1.04721e-12 9.77196e-11)
(1.58539e-10 3.27037e-12 1.04242e-10)
(1.99371e-10 -8.66465e-12 1.24912e-10)
(2.2868e-10 -1.59122e-11 1.41349e-10)
(-1.70867e-10 1.78705e-11 3.94152e-10)
(-2.28451e-10 4.519e-11 5.38798e-10)
(-2.23304e-10 4.80713e-11 5.45685e-10)
(1.75547e-10 -3.01932e-11 8.24564e-11)
(-1.61584e-10 -5.1015e-11 3.25789e-10)
(-9.92556e-11 1.7268e-12 4.26396e-10)
(-1.79327e-10 -5.95709e-11 3.3858e-10)
(5.59039e-11 -7.12701e-12 4.15616e-11)
(3.04445e-10 3.64419e-12 2.56872e-10)
(8.7194e-11 -7.8733e-12 6.98118e-11)
(-1.49674e-10 -9.30998e-12 2.79665e-10)
(1.50536e-10 4.1623e-12 1.00472e-10)
(1.65055e-10 4.52604e-12 1.0443e-10)
(1.78841e-10 3.45584e-12 1.08012e-10)
(2.12562e-10 -9.59134e-12 1.23597e-10)
(2.4012e-10 -2.01507e-11 1.37499e-10)
(-1.59016e-10 1.55653e-11 3.45971e-10)
(-2.01132e-10 4.84128e-11 5.07929e-10)
(-2.07697e-10 5.15531e-11 5.27879e-10)
(1.83215e-10 -3.44793e-11 8.22183e-11)
(-1.6915e-10 -4.48798e-11 3.12165e-10)
(-8.94146e-11 1.56425e-11 4.09863e-10)
(-1.80951e-10 -5.0136e-11 3.21875e-10)
(-1.74846e-10 4.97823e-11 5.22978e-10)
(2.96639e-10 -1.36067e-12 2.50329e-10)
(-1.53079e-10 -2.85691e-11 2.5061e-10)
(-1.91003e-10 3.45968e-11 5.25436e-10)
(9.34243e-11 -6.2772e-12 7.45441e-11)
(-1.81498e-10 3.4396e-11 4.95111e-10)
(1.79482e-10 6.7158e-12 1.0769e-10)
(1.91722e-10 5.63987e-12 1.10093e-10)
(2.29962e-10 -1.19113e-11 1.25724e-10)
(2.6156e-10 -2.19419e-11 1.43553e-10)
(-1.45085e-10 2.32948e-11 3.42613e-10)
(-1.83407e-10 4.57919e-11 4.72872e-10)
(-1.94684e-10 4.8543e-11 5.03354e-10)
(1.89505e-10 -3.78276e-11 8.05211e-11)
(2.90255e-10 4.62636e-11 1.75145e-10)
(8.41645e-11 -1.26389e-11 5.62999e-11)
(-1.14655e-10 6.51757e-11 4.59317e-10)
(6.54845e-11 -8.56991e-12 4.65567e-11)
(-1.80057e-10 6.22136e-11 5.1417e-10)
(7.14929e-11 -8.76064e-12 5.68039e-11)
(2.70895e-10 -4.11572e-12 2.31305e-10)
(3.0263e-10 -3.65511e-11 2.13294e-10)
(1.84412e-10 9.92039e-12 1.03742e-10)
(2.02561e-10 6.66522e-12 1.09345e-10)
(2.45369e-10 -1.18439e-11 1.23714e-10)
(2.65744e-10 -2.43185e-11 1.35742e-10)
(-1.33661e-10 1.80633e-11 2.99732e-10)
(-1.83503e-10 5.0196e-11 4.76988e-10)
(1.97621e-10 -4.28353e-11 8.0456e-11)
(2.75508e-10 4.84854e-11 1.60582e-10)
(-8.00053e-11 -3.4469e-11 2.37325e-10)
(1.30207e-10 -2.70644e-11 6.96618e-11)
(-1.49003e-10 -3.34663e-11 2.56958e-10)
(8.74687e-11 -1.40535e-11 5.76214e-11)
(7.07438e-11 -1.00195e-11 5.02354e-11)
(6.6121e-11 -1.05913e-11 4.94769e-11)
(-1.41932e-10 -3.95335e-11 2.34796e-10)
(-1.35359e-10 -2.22813e-11 2.19772e-10)
(1.18675e-10 -2.68385e-12 8.80003e-11)
(2.79632e-10 -3.67549e-11 1.99316e-10)
(2.00324e-10 1.29673e-11 1.08137e-10)
(2.13085e-10 1.08511e-11 1.07465e-10)
(2.52988e-10 -1.32363e-11 1.1858e-10)
(2.74783e-10 -2.36317e-11 1.35865e-10)
(-1.27127e-10 2.12341e-11 2.95742e-10)
(2.43076e-10 5.24362e-11 1.34815e-10)
(-9.24365e-11 -3.27718e-11 2.10575e-10)
(-8.05107e-11 -3.14483e-11 2.11709e-10)
(-7.31724e-11 -2.79022e-11 2.0835e-10)
(1.32665e-10 -2.9879e-11 6.87144e-11)
(-1.51622e-10 -2.69725e-11 2.42669e-10)
(-5.5359e-11 2.87943e-11 3.06804e-10)
(9.44064e-11 -1.80225e-11 6.11527e-11)
(1.76808e-10 5.17488e-11 1.6461e-10)
(-1.52156e-10 -3.91899e-11 2.5962e-10)
(-1.43892e-10 -4.41323e-11 2.43455e-10)
(-1.25347e-10 1.17861e-10 4.69017e-10)
(1.40901e-10 3.94693e-12 1.56562e-10)
(-1.84052e-10 7.08012e-11 4.69305e-10)
(1.27607e-10 1.34513e-12 9.28178e-11)
(2.22627e-10 -3.2675e-11 1.70385e-10)
(2.04249e-10 1.6434e-11 1.03952e-10)
(2.25597e-10 1.29155e-11 1.06433e-10)
(2.65533e-10 -1.31465e-11 1.16754e-10)
(2.79647e-10 -2.54686e-11 1.33155e-10)
(-1.18841e-10 2.05474e-11 2.69978e-10)
(2.66955e-10 -1.44042e-11 9.07335e-11)
(2.5292e-10 2.80369e-12 9.79821e-11)
(2.08546e-10 5.0931e-11 1.27689e-10)
(-9.42992e-11 -2.60956e-11 1.82964e-10)
(-7.41185e-11 -2.79467e-11 1.80944e-10)
(-7.32645e-11 -2.56441e-11 1.7891e-10)
(-6.70776e-11 -2.23831e-11 1.78477e-10)
(1.36114e-10 -3.38728e-11 6.80064e-11)
(-1.52749e-10 -1.87033e-11 2.27971e-10)
(1.96718e-10 4.91026e-11 2.03289e-10)
(-5.48e-11 9.90839e-11 3.7029e-10)
(-1.2966e-10 -3.35543e-11 2.09991e-10)
(-1.6342e-10 1.12082e-10 4.76171e-10)
(9.63647e-11 -1.05094e-11 7.99077e-11)
(1.79049e-10 3.41078e-12 2.13586e-10)
(-1.27661e-10 -2.52392e-11 2.01813e-10)
(1.32065e-10 5.46413e-13 9.54154e-11)
(1.8954e-10 -2.25185e-11 1.87663e-10)
(-1.848e-10 5.97825e-11 4.56637e-10)
(2.2046e-10 2.2185e-11 1.07593e-10)
(2.36432e-10 1.75425e-11 1.05286e-10)
(2.74365e-10 -1.14528e-11 1.17874e-10)
(2.77197e-10 -2.34688e-11 1.36696e-10)
(-1.46206e-10 4.16414e-11 4.25251e-10)
(2.68108e-10 -1.69197e-11 9.15468e-11)
(2.47671e-10 1.57698e-12 9.60703e-11)
(2.00177e-10 4.20213e-11 1.45557e-10)
(-1.06716e-10 -1.67344e-11 1.60415e-10)
(-7.561e-11 -2.30045e-11 1.55023e-10)
(-6.10357e-11 -1.69095e-11 1.52119e-10)
(1.45104e-10 -3.78993e-11 7.36305e-11)
(2.00522e-10 3.93929e-11 2.30983e-10)
(8.32122e-11 -2.03068e-11 6.8752e-11)
(1.91171e-10 2.66494e-11 2.31146e-10)
(2.30857e-10 2.49773e-11 1.08798e-10)
(2.54088e-10 2.1774e-11 1.16689e-10)
(2.62569e-10 -1.932e-11 1.54444e-10)
(-1.00302e-10 1.88734e-11 2.3132e-10)
(-1.36175e-10 3.76416e-11 4.28507e-10)
(2.68507e-10 -1.56287e-11 9.87221e-11)
(2.40825e-10 2.23404e-12 1.13705e-10)
(1.99078e-10 3.50432e-11 1.57073e-10)
(-1.12787e-10 -7.07808e-12 1.39847e-10)
(-5.21165e-11 -1.30487e-11 1.30094e-10)
(1.49896e-10 -4.31229e-11 7.38815e-11)
(1.9816e-10 4.36462e-11 1.87359e-10)
(-3.97624e-12 4.54996e-11 1.89771e-10)
(-1.53286e-10 -1.76108e-11 2.23987e-10)
(9.21511e-11 -2.84256e-11 6.7338e-11)
(-1.47741e-10 -2.38207e-11 2.29493e-10)
(-5.12233e-11 2.27722e-10 4.07172e-10)
(1.65106e-10 1.5986e-11 1.07306e-10)
(2.51685e-10 2.93205e-11 1.28555e-10)
(2.77104e-10 2.34845e-11 1.46706e-10)
(2.43211e-10 -8.66512e-12 1.97969e-10)
(-1.30551e-10 3.17912e-11 4.34093e-10)
(2.63526e-10 -2.08015e-11 1.24388e-10)
(2.20415e-10 -6.70707e-12 1.22918e-10)
(1.95208e-10 7.89115e-12 1.30458e-10)
(1.83195e-10 3.23237e-11 1.51335e-10)
(-1.29236e-10 4.73302e-12 1.21902e-10)
(-2.74993e-11 -2.04269e-12 1.20449e-10)
(1.90955e-10 4.36991e-11 1.81578e-10)
(-1.52765e-10 5.43772e-12 1.72801e-10)
(8.80189e-11 1.48529e-10 2.25506e-10)
(-1.59138e-10 -2.19866e-11 2.37401e-10)
(-1.48559e-10 2.88177e-10 5.31834e-10)