/*--------------------------------*- C++ -*----------------------------------*\
  =========                 |
  \\      /  F ield         | OpenFOAM: The Open Source CFD Toolbox
   \\    /   O peration     | Website:  https://openfoam.org
    \\  /    A nd           | Version:  7
     \\/     M anipulation  |
\*---------------------------------------------------------------------------*/
FoamFile
{
    version     2.0;
    format      ascii;
    class       volScalarField;
    location    "8";
    object      p;
}
// * * * * * * * * * * * * * * * * * * * * * * * * * * * * * * * * * * * * * //

dimensions      [0 2 -2 0 0 0 0];

internalField   nonuniform List<scalar> 
382612
(
0.00208116
0.00183977
0.00199759
0.0020004
0.0017415
0.00220933
0.00212305
0.00201562
0.00184482
0.00168548
0.00188034
0.0018681
0.00181328
0.00184065
0.00195277
0.00207408
0.00185116
0.00199107
0.00202225
0.00204225
0.00206126
0.00208582
0.00211034
0.00211982
0.00210103
0.00207767
0.00205471
0.00246155
0.00250569
0.00254299
0.00257397
0.00236471
0.00235831
0.00234957
0.00233382
0.0022483
0.00195906
0.00204527
0.00210607
0.00213673
0.00216177
0.00218394
0.00209938
0.00208364
0.00206277
0.00203627
0.00195306
0.00196722
0.00198734
0.00200389
0.00216273
0.00214704
0.00212816
0.00210773
0.00208156
0.00192421
0.00197558
0.00205756
0.00211954
0.00200957
0.00208225
0.00195798
0.00197506
0.00261393
0.0020205
0.00186648
0.00212988
0.0023336
0.00243469
0.002565
0.00258228
0.00258458
0.0025857
0.00272304
0.00271357
0.002701
0.00267663
0.00257218
0.00237181
0.0024734
0.00251307
0.00253984
0.00255869
0.00288996
0.00289714
0.00290543
0.00288999
0.00273867
0.00212245
0.00224723
0.00227787
0.00229273
0.00230256
0.00247776
0.00249195
0.00250935
0.00251086
0.00244322
0.00201536
0.00208397
0.00210523
0.00211834
0.0021324
0.0021484
0.00202411
0.00201697
0.00200869
0.00200551
0.0018158
0.00184457
0.0018656
0.00188077
0.00213082
0.00211256
0.00209204
0.0020715
0.00204406
0.00170554
0.00182279
0.00185474
0.00186942
0.00187816
0.00204048
0.00202254
0.00200289
0.00198032
0.00191352
0.00166037
0.00184371
0.00197234
0.0019949
0.00200358
0.00200644
0.00221445
0.00222319
0.00223536
0.0022481
0.00236149
0.00234052
0.00221017
0.00217895
0.00215991
0.0021463
0.00189686
0.00188704
0.0018755
0.00186952
0.00198733
0.00200029
0.00201135
0.00201844
0.00201185
0.00200848
0.00200179
0.00199689
0.0020389
0.00195836
0.00188924
0.0018891
0.00189566
0.00190011
0.00183234
0.00198579
0.00202267
0.00171005
0.00187281
0.00181647
0.00210039
0.00230884
0.00177937
0.0018011
0.00213633
0.00174334
0.00181826
0.00179707
0.00172911
0.00172583
0.00173456
0.00174011
0.00224335
0.00225395
0.0022715
0.00229448
0.00229434
0.00196555
0.0019263
0.00191618
0.00191556
0.00191687
0.00223575
0.00225052
0.00227436
0.002304
0.00233255
0.00200499
0.00211419
0.00212201
0.00212077
0.00211596
0.00211282
0.00193256
0.00193266
0.00193494
0.00194677
0.00164868
0.00165156
0.00165852
0.00166135
0.00198252
0.00198313
0.00198328
0.00198594
0.00202265
0.00167417
0.00166434
0.00202622
0.00192468
0.00161084
0.00184208
0.00198194
0.00169453
0.00197275
0.00193969
0.00166183
0.00158725
0.00189939
0.00190886
0.00175473
0.00157673
0.00180988
0.00195039
0.00200736
0.0019822
0.00197195
0.00183739
0.00167147
0.00200751
0.00193173
0.00199408
0.00202711
0.00194632
0.00199372
0.00211626
0.00209263
0.00189549
0.00193936
0.00197622
0.00198687
0.00200008
0.00201404
0.00216409
0.00216177
0.0021534
0.00211329
0.00237787
0.00235358
0.00233509
0.00231807
0.00273652
0.0027264
0.00271693
0.00269349
0.00255981
0.00247993
0.00241658
0.0024214
0.002433
0.00243635
0.00244222
0.00210594
0.00210803
0.00210334
0.00208971
0.00209772
0.00255921
0.00252222
0.002525
0.00253434
0.00254257
0.00236973
0.00235615
0.00233433
0.00231727
0.0023413
0.00255569
0.00250962
0.00250894
0.0025227
0.00253407
0.00273451
0.00273496
0.00273482
0.0027257
0.00265495
0.00257041
0.00269439
0.00272388
0.00273654
0.0027439
0.00316215
0.00316837
0.00317639
0.00315856
0.00298725
0.00221698
0.00224242
0.00225777
0.00227994
0.00229806
0.00237177
0.00236405
0.00235363
0.00233271
0.00223466
0.00205328
0.00213098
0.00216352
0.00218727
0.0022031
0.00253958
0.00255402
0.00257757
0.00258853
0.0025055
0.00185407
0.00185164
0.00185736
0.00187401
0.00188983
0.00196404
0.00196343
0.0019754
0.0019897
0.0019994
0.00194142
0.00192669
0.00190825
0.00189787
0.00188731
0.00243778
0.00244063
0.00241958
0.00239353
0.00237514
0.00187388
0.00186485
0.00185419
0.00185608
0.00189653
0.00237871
0.00232863
0.00229737
0.00227248
0.00225676
0.00174718
0.0017428
0.00173825
0.00175245
0.00185053
0.00205052
0.00198745
0.0019786
0.00198293
0.00198793
0.00222245
0.00223509
0.00225443
0.00228087
0.0023301
0.00195323
0.00186198
0.00185005
0.00185673
0.00186311
0.00218863
0.00219936
0.00221489
0.00223225
0.00224096
0.00201019
0.00204369
0.00204588
0.00204679
0.00204376
0.00204086
0.00196537
0.00196458
0.00196422
0.00196961
0.00181025
0.00180767
0.00180931
0.00181021
0.00198269
0.00198605
0.00198904
0.00199124
0.00199947
0.00182957
0.00208425
0.00203
0.0020174
0.00201356
0.00201084
0.00196184
0.00213041
0.00220592
0.00215708
0.00214179
0.00213366
0.00212812
0.00199054
0.00199018
0.00198933
0.00198869
0.00203854
0.00203625
0.00203251
0.00202966
0.00205441
0.00205571
0.00205782
0.00205929
0.002042
0.00204363
0.00204766
0.00205059
0.00222239
0.00222674
0.00223127
0.00223485
0.0022554
0.00205795
0.00206201
0.0020895
0.00215664
0.00200932
0.00205782
0.00201847
0.00190451
0.00178689
0.0019779
0.00198083
0.00181979
0.00215146
0.00210801
0.00208023
0.00212168
0.00199784
0.00204112
0.00211028
0.00219131
0.00218815
0.00228831
0.00227756
0.00224285
0.00223695
0.00223822
0.00224025
0.00232449
0.00232157
0.00231746
0.00231284
0.00231168
0.0023642
0.0023714
0.00237346
0.00237584
0.00237886
0.00230803
0.00230842
0.00230829
0.00230518
0.00230146
0.00213128
0.00207451
0.00208251
0.00208464
0.00208416
0.00208396
0.00214506
0.00213827
0.00212964
0.00212439
0.00207652
0.00208066
0.0020857
0.00208948
0.00205729
0.00205832
0.0020598
0.00205941
0.00205552
0.00207638
0.00226914
0.00225542
0.00225597
0.00225503
0.00225295
0.00226879
0.00234981
0.00229876
0.00228519
0.00229031
0.00229851
0.00230453
0.002514
0.00251321
0.00251046
0.00249861
0.0024593
0.00248754
0.00251214
0.00252189
0.00252818
0.0025327
0.00244428
0.00243842
0.00243084
0.00242281
0.00241822
0.0023447
0.00237418
0.00238763
0.00239358
0.00239736
0.00220276
0.00219196
0.0021791
0.00217246
0.00212579
0.00213003
0.00213085
0.00213187
0.00216753
0.0021657
0.0021637
0.00215948
0.00221697
0.00221894
0.00222488
0.00223008
0.00245797
0.00244698
0.00243274
0.00241474
0.00238219
0.00221946
0.00214149
0.00212804
0.00224334
0.00216994
0.00211646
0.00208427
0.00214789
0.00201115
0.00203529
0.00208673
0.00213489
0.00218374
0.00209469
0.00210838
0.00221759
0.00217606
0.00210903
0.00229211
0.00236491
0.00245636
0.002493
0.00244235
0.00244865
0.00245698
0.00246611
0.00247265
0.00258966
0.00258282
0.00257265
0.00255729
0.00252693
0.00255429
0.00258515
0.00259745
0.00260458
0.00260908
0.0025178
0.00251384
0.00250749
0.00249666
0.00248322
0.00247306
0.00248424
0.0024909
0.0024943
0.00249628
0.00243079
0.00242052
0.00240696
0.00239132
0.00235877
0.00222459
0.00224641
0.00224602
0.00224338
0.00224132
0.00231608
0.00230716
0.00229651
0.00228162
0.0022346
0.00215627
0.00210465
0.00211451
0.00211889
0.00211915
0.00211869
0.00214209
0.00213834
0.00213414
0.00213648
0.0021843
0.00218924
0.00219591
0.00220109
0.00213509
0.00213403
0.00213329
0.00213206
0.00212311
0.00217924
0.0021618
0.00210202
0.0021026
0.00214857
0.00210846
0.00207759
0.00208721
0.002125
0.00222232
0.00213018
0.00205713
0.00207233
0.00214609
0.00207463
0.00231327
0.00263697
0.00221207
0.00210732
0.00233369
0.00247962
0.00256492
0.0025803
0.00255896
0.00253895
0.00245371
0.00248811
0.0025032
0.00251035
0.00251441
0.00259042
0.00258533
0.00257901
0.00256977
0.0025407
0.00255359
0.00258531
0.00259499
0.00260119
0.00260596
0.00255804
0.00254993
0.00253915
0.0025279
0.00251443
0.00255255
0.00258406
0.00259569
0.00260271
0.00260758
0.00256326
0.00256044
0.00255425
0.00253992
0.00250149
0.00238343
0.00237912
0.002384
0.0023915
0.00239764
0.00245448
0.00245245
0.0024498
0.0024433
0.00241915
0.00230317
0.00230191
0.00230702
0.00231256
0.00231624
0.00219232
0.00218831
0.00218337
0.00217913
0.00217445
0.0021125
0.00208877
0.00209677
0.00209983
0.00209966
0.0020979
0.00212033
0.00211681
0.00211206
0.00210894
0.00209772
0.00209922
0.00210238
0.00210589
0.00207118
0.0020714
0.00206964
0.00206488
0.00206258
0.00210428
0.00219293
0.00218643
0.00219041
0.0021957
0.00220012
0.00214669
0.00214256
0.00213727
0.00213342
0.00213673
0.00206051
0.0020462
0.00205733
0.00206095
0.00206251
0.00206443
0.00208414
0.00207878
0.00207228
0.002067
0.00208767
0.0020883
0.00208952
0.00209065
0.00208445
0.0020823
0.0020821
0.00208156
0.00207403
0.00208622
0.00208097
0.00205306
0.00207357
0.00207189
0.00201057
0.00201817
0.00210204
0.00213084
0.00215508
0.00209224
0.00206645
0.00204111
0.00208512
0.00207104
0.00197772
0.0018796
0.0021132
0.00207578
0.00213897
0.00218625
0.00231652
0.00217547
0.00218257
0.00234016
0.00209649
0.00206244
0.00213594
0.00227525
0.00219676
0.00211312
0.00210141
0.00223234
0.00227649
0.00213596
0.00208955
0.00209527
0.00233605
0.00232755
0.00238086
0.00238626
0.00239423
0.00238266
0.00238041
0.00238112
0.00238243
0.00237896
0.0023774
0.0023765
0.00237799
0.00237638
0.00246396
0.00248298
0.0024879
0.00249177
0.00249507
0.00241467
0.00241248
0.00240783
0.00239669
0.00237183
0.00231013
0.00230602
0.002306
0.00230885
0.00231223
0.00241792
0.00241301
0.00240737
0.00239991
0.00237651
0.00239727
0.00242276
0.00243202
0.00243935
0.00244543
0.00253536
0.00253069
0.00252343
0.00250728
0.00246606
0.00238434
0.00240391
0.00241712
0.00242524
0.00243011
0.0025154
0.00250995
0.00250371
0.00249738
0.00247913
0.00247335
0.00248319
0.00248803
0.00249217
0.00249532
0.00241031
0.00240801
0.00240617
0.00240463
0.00239215
0.00234274
0.00233348
0.00233097
0.00233233
0.00233403
0.00224441
0.00223939
0.00223329
0.00223103
0.00224441
0.00226354
0.00227956
0.0022826
0.00228241
0.00228253
0.00216997
0.0021721
0.00217383
0.00217393
0.00216647
0.00216555
0.00218059
0.00218049
0.00217698
0.00217362
0.00204737
0.00204325
0.00203874
0.00203799
0.0020676
0.00207276
0.00207568
0.0020783
0.00206787
0.00206398
0.00205913
0.00205193
0.00204386
0.00204542
0.00204331
0.00204804
0.0020532
0.00205698
0.0020767
0.00207734
0.00207756
0.0020778
0.00207773
0.00205954
0.00205635
0.00205566
0.00205566
0.00205546
0.00201773
0.00201393
0.00200877
0.00200495
0.00202238
0.00202705
0.00203091
0.00203479
0.00210484
0.00210111
0.00209925
0.00209702
0.00206981
0.00206721
0.00206912
0.0020718
0.00209705
0.00210128
0.00210721
0.00211365
0.00211909
0.00208166
0.0020911
0.00207229
0.00204847
0.0018918
0.00197181
0.00209442
0.00204546
0.00200212
0.00204298
0.002083
0.00208705
0.00181241
0.00196467
0.00195406
0.00177525
0.0018659
0.00194604
0.00200458
0.00196467
0.00208171
0.00205533
0.00210614
0.00219563
0.00231032
0.00214497
0.00210317
0.00217058
0.00217693
0.00212483
0.00201522
0.00200207
0.00195561
0.00222678
0.00246815
0.00263685
0.00270945
0.00267151
0.0025302
0.00232519
0.00209478
0.00188385
0.00174834
0.00179696
0.00180978
0.0018089
0.0018059
0.00193183
0.00192468
0.00191689
0.00191225
0.001907
0.00211983
0.00218625
0.00220273
0.00220396
0.00220262
0.00228629
0.00227761
0.00226762
0.00226039
0.00224342
0.00218385
0.00223472
0.00224729
0.0022526
0.0022562
0.00222608
0.00222474
0.00222009
0.00220672
0.00215969
0.0023429
0.00235314
0.00235749
0.00236552
0.00237298
0.00230893
0.00230836
0.0023046
0.00229032
0.00224241
0.00216657
0.00217556
0.00218119
0.00218491
0.00218653
0.0023239
0.00231993
0.00231685
0.0023182
0.00232294
0.00229329
0.00228739
0.00229262
0.00229899
0.00230363
0.00229746
0.00229588
0.00229206
0.00228454
0.00227755
0.00222945
0.00224695
0.0022535
0.00225505
0.00225497
0.0021614
0.00215895
0.00215598
0.00215539
0.00216103
0.0022264
0.00221548
0.00220933
0.00220602
0.00220456
0.00211784
0.00211316
0.00210834
0.00211016
0.00213788
0.0021074
0.00209491
0.00209692
0.00210106
0.00210389
0.00212648
0.0021312
0.00213891
0.00214818
0.00215071
0.00203053
0.0020175
0.00201947
0.00202226
0.00202386
0.00198949
0.00198724
0.00198381
0.00198225
0.00199674
0.00200775
0.00200286
0.00200326
0.00200366
0.00200287
0.00203948
0.0020357
0.00203043
0.00202617
0.00202702
0.00197536
0.00200252
0.00201148
0.00202158
0.00203143
0.00203984
0.00201528
0.00200797
0.00199714
0.00198504
0.00200625
0.00200719
0.00200953
0.0020113
0.00204634
0.00204429
0.00204221
0.00203804
0.00202942
0.00201603
0.00206059
0.00208357
0.00207466
0.00201928
0.00192432
0.00202807
0.00197984
0.00184815
0.00199911
0.00202954
0.00187945
0.00167705
0.00176921
0.00195132
0.00185891
0.00164991
0.00181648
0.00188251
0.00192907
0.00191549
0.00194499
0.00196854
0.00200301
0.0019543
0.00163061
0.00184186
0.0018506
0.00163986
0.00161964
0.00167242
0.00174113
0.00191148
0.00208428
0.00221128
0.00226109
0.00220983
0.00206318
0.00184569
0.00160391
0.00137858
0.00127213
0.00132403
0.00133158
0.00132693
0.0013215
0.00144042
0.00143399
0.00142772
0.00142458
0.00141658
0.00170396
0.00175641
0.00176715
0.00176455
0.0017597
0.00188792
0.00187993
0.00187118
0.00186728
0.00186526
0.00204717
0.00205615
0.00206109
0.00206669
0.00207095
0.00197
0.00196474
0.00196028
0.00196284
0.0019658
0.00212507
0.00210535
0.00210138
0.00210509
0.00210949
0.00203283
0.00203056
0.00203124
0.00204018
0.00204717
0.00214688
0.0021152
0.00210292
0.00210157
0.0021028
0.002108
0.00210642
0.00210384
0.00210297
0.00211593
0.00225159
0.0022509
0.00224494
0.00224271
0.00224323
0.00219228
0.0021916
0.0021922
0.00220026
0.00223244
0.00215573
0.00215511
0.00214725
0.0021437
0.00214261
0.00212928
0.00213108
0.00213536
0.00214536
0.00216093
0.00208869
0.00207642
0.002075
0.00207671
0.00207829
0.00213416
0.00213394
0.00213316
0.00213093
0.00212407
0.00215902
0.00212144
0.00217441
0.00216964
0.00209964
0.00209687
0.00210017
0.00210265
0.00210331
0.00203706
0.00203537
0.00203407
0.00203812
0.00206174
0.00201173
0.00200734
0.00201016
0.00201084
0.00201046
0.00199967
0.00199828
0.00199591
0.00199352
0.0020021
0.00199828
0.00200252
0.00200366
0.00200341
0.002003
0.00195989
0.00196053
0.00196157
0.00196587
0.00198646
0.00214626
0.0021405
0.00212576
0.00211484
0.00210882
0.0020819
0.00208518
0.00209199
0.00210845
0.00215981
0.00206581
0.00208087
0.00207301
0.00207032
0.00206896
0.00206994
0.00201634
0.00201799
0.00202171
0.00203372
0.00195392
0.0019646
0.00197015
0.00197351
0.00209988
0.00209667
0.00209283
0.00208317
0.00205616
0.00193015
0.00199114
0.00212345
0.00202334
0.00192626
0.00191377
0.00209412
0.00193849
0.00192991
0.00196117
0.00197189
0.00197367
0.00197286
0.00188392
0.00188344
0.00188179
0.00188068
0.00188866
0.00194633
0.00198039
0.00198376
0.001982
0.00197965
0.00201983
0.0020271
0.00203348
0.00202862
0.00197208
0.00196308
0.00200964
0.00203242
0.0020392
0.00204404
0.0020502
0.00201134
0.00201385
0.00201457
0.002007
0.00194188
0.00194958
0.00195913
0.00196558
0.00206688
0.00206033
0.00205228
0.00204052
0.00202365
0.00195778
0.00205412
0.00206187
0.00203283
0.001957
0.00176887
0.00194255
0.00190367
0.00166497
0.00162605
0.00184942
0.00178538
0.00155286
0.00180294
0.00187603
0.00194153
0.00198228
0.00183564
0.00185225
0.00190129
0.00187557
0.0018419
0.0019319
0.00199113
0.00192369
0.00205631
0.00204831
0.0019878
0.00193488
0.0018889
0.00200385
0.00193412
0.00177023
0.002033
0.00205375
0.00205316
0.00207887
0.0020354
0.00203355
0.00200903
0.00204286
0.00169435
0.00185492
0.00190456
0.00168598
0.00177133
0.00192076
0.00196513
0.00199246
0.00187734
0.00195038
0.00189558
0.00177657
0.0017483
0.00188766
0.00192365
0.00170789
0.00178743
0.00195206
0.00196099
0.00176687
0.00186287
0.00198834
0.00200068
0.00189856
0.00178789
0.00198743
0.00194797
0.00170846
0.00195231
0.00194196
0.00191313
0.00186745
0.00178912
0.00177934
0.00178243
0.00178413
0.00201005
0.00201053
0.00201135
0.00201905
0.00206734
0.00228625
0.0022326
0.00221308
0.00220315
0.00219818
0.00199929
0.0019943
0.00198929
0.00199803
0.00207273
0.00224678
0.00222055
0.0022069
0.00220042
0.00219758
0.00215435
0.0021511
0.00214801
0.0021529
0.00220126
0.00213142
0.0021123
0.00199715
0.00195344
0.00190305
0.00189559
0.00189711
0.00189792
0.00208849
0.00209031
0.00209117
0.00209075
0.00210861
0.00228151
0.00224763
0.00223414
0.00223027
0.00222947
0.00214857
0.00214445
0.00213964
0.00214221
0.00218338
0.00232188
0.00231705
0.00231092
0.00230812
0.00230694
0.00222788
0.00222778
0.00222759
0.0022307
0.00225923
0.00225492
0.0022348
0.00215267
0.00210101
0.00202275
0.00198914
0.0019868
0.00198855
0.00198976
0.00216893
0.00216945
0.00217271
0.00218398
0.00219923
0.00226793
0.00226155
0.00225526
0.00225442
0.0022556
0.0022864
0.00228449
0.00228124
0.00227667
0.00227732
0.00230904
0.00231835
0.00232295
0.00232321
0.00232255
0.00233872
0.00244518
0.00240838
0.00229117
0.00212825
0.0020221
0.00204579
0.00205425
0.00205375
0.00205127
0.00218969
0.00218501
0.00218246
0.00218674
0.0021932
0.00223228
0.00224758
0.00225285
0.00225977
0.00226656
0.00215057
0.0021538
0.00215412
0.00214047
0.00209081
0.00189482
0.00187442
0.00187303
0.00187933
0.00188547
0.0017425
0.0017468
0.00174969
0.00174118
0.00171484
0.0014791
0.0014679
0.00146155
0.00146185
0.0014639
0.00146829
0.00146472
0.00146128
0.00146227
0.00146943
0.00121759
0.00121243
0.0012145
0.0012208
0.0012268
0.00119067
0.00119028
0.00119141
0.00119385
0.00119096
0.00102239
0.00101023
0.00101156
0.00101388
0.00101605
0.000931913
0.000926542
0.000923467
0.000927529
0.000952905
0.00118335
0.00119916
0.00120178
0.00119619
0.00118928
0.00132819
0.00132281
0.00131806
0.00132111
0.00134239
0.0015629
0.0015473
0.00154629
0.00155054
0.00155544
0.00174389
0.00174899
0.00175338
0.00174907
0.00172149
0.00183101
0.00185656
0.00186311
0.0018634
0.00186317
0.00177118
0.00177388
0.00177509
0.00177171
0.0017782
0.00185099
0.00182974
0.00183117
0.0018356
0.00183948
0.00195018
0.00195061
0.0019505
0.00194712
0.00193852
0.00192335
0.0019036
0.00190093
0.00190085
0.00190004
0.00211279
0.00211449
0.00212062
0.00213055
0.00213945
0.00189264
0.00186866
0.00186837
0.00187178
0.00187386
0.00193183
0.00193255
0.00193339
0.00193268
0.00192886
0.00192875
0.00190321
0.00189818
0.00189722
0.00189687
0.00204266
0.00204771
0.0020577
0.00207465
0.00208772
0.00210279
0.00206984
0.0020568
0.00205121
0.0020486
0.00185567
0.0018531
0.00184912
0.00184601
0.00185786
0.00188046
0.00186741
0.00186856
0.00187055
0.00187151
0.00211053
0.00212033
0.00213744
0.00216141
0.00216527
0.00222524
0.00224134
0.00222221
0.00220561
0.00219571
0.00220908
0.0022117
0.0022185
0.00223118
0.00223047
0.00231332
0.00230005
0.00229937
0.00229872
0.00230029
0.00207855
0.00207419
0.00206807
0.00206381
0.00206524
0.00193186
0.00194415
0.0019856
0.00200278
0.00201832
0.00203116
0.0020667
0.00206387
0.00205837
0.00203559
0.00215548
0.00215506
0.00215541
0.00215686
0.00213771
0.00212948
0.00212362
0.00212165
0.00213701
0.00214587
0.00205918
0.00210699
0.00198648
0.00188547
0.00213553
0.00207396
0.00201671
0.00194542
0.0017964
0.00191667
0.00190115
0.00180731
0.00185384
0.00184406
0.00193514
0.00196465
0.00191027
0.0019525
0.00197753
0.00191793
0.00183306
0.00194701
0.00191368
0.00177183
0.00180765
0.00190043
0.00185618
0.00180119
0.00191099
0.00163679
0.00145483
0.00129814
0.00121656
0.00119599
0.00119297
0.0011698
0.00111736
0.00105125
0.000974779
0.000891559
0.000799749
0.000704786
0.000607081
0.000691329
0.000680333
0.00067951
0.000681671
0.000683515
0.000818429
0.000829509
0.000841519
0.000848409
0.000843181
0.000900996
0.000902972
0.000900512
0.000895237
0.000890236
0.000843083
0.000852994
0.000863076
0.000868813
0.000878431
0.00111216
0.00106671
0.00105542
0.00105647
0.00106038
0.00120778
0.00121621
0.00122369
0.00122326
0.00122464
0.00150413
0.00148141
0.00146954
0.00146862
0.00146974
0.00166875
0.00166703
0.00166921
0.00168322
0.00172219
0.0015591
0.00156501
0.00156531
0.00156393
0.00156189
0.00152032
0.00152449
0.00152705
0.00152867
0.00155059
0.00187473
0.00185341
0.00183577
0.00182933
0.00182789
0.00189902
0.00189971
0.00190408
0.00192115
0.00197779
0.00168653
0.00169355
0.00169466
0.00169422
0.00169345
0.00171818
0.00172026
0.001723
0.00172795
0.00174902
0.00198191
0.00197925
0.00196251
0.00195186
0.00194676
0.00192695
0.00192966
0.00193634
0.00195325
0.00200032
0.00172482
0.00171756
0.00171884
0.00172109
0.00172174
0.00179075
0.00179146
0.00179216
0.0017916
0.00179042
0.0018661
0.00184361
0.0018372
0.00183407
0.00183207
0.00205536
0.00206568
0.00208247
0.00210239
0.00209664
0.00177413
0.00177912
0.00178589
0.00178924
0.0017907
0.00183315
0.00182998
0.00182247
0.00180738
0.0017892
0.00180754
0.00182622
0.00184448
0.00185654
0.00186301
0.00195674
0.00194962
0.00193739
0.00191581
0.00188102
0.00178891
0.00183518
0.00185879
0.00187057
0.00187653
0.00213636
0.00213099
0.00212234
0.00210013
0.00202599
0.00219504
0.00223062
0.00223015
0.00222732
0.00222674
0.00210679
0.00211043
0.00211338
0.00210697
0.00203318
0.0020409
0.00205306
0.0020647
0.0021253
0.00210961
0.00209227
0.00207696
0.00208497
0.00210022
0.00210405
0.00210494
0.00233963
0.00233603
0.00233211
0.00231581
0.00221114
0.00200304
0.00206707
0.00206171
0.00191278
0.00188749
0.00206797
0.00205915
0.00188047
0.00195026
0.00211229
0.00214415
0.00215788
0.00216452
0.00217129
0.00204636
0.00203499
0.00201638
0.00199531
0.00228437
0.00230799
0.00230835
0.00230858
0.00219168
0.00218627
0.00217773
0.00216193
0.00213973
0.00229678
0.00229235
0.00229296
0.0022862
0.0022823
0.00229955
0.00229501
0.00228948
0.0022779
0.00233614
0.00204146
0.00205894
0.00206227
0.00206704
0.00207471
0.00208209
0.002169
0.00217049
0.0021705
0.00215464
0.00206538
0.00209179
0.00210198
0.00210944
0.0020529
0.00204448
0.00203513
0.00202489
0.00199436
0.00190075
0.00183598
0.0020564
0.00199622
0.00200878
0.00200847
0.00193082
0.00191649
0.00191034
0.0020753
0.0019938
0.00189991
0.00191769
0.00197371
0.0018943
0.00196264
0.00194351
0.00191654
0.00164483
0.0012806
0.000910211
0.000644354
0.000544963
0.000603926
0.000736307
0.000839053
0.000848157
0.000765176
0.000636082
0.000554377
0.000485203
0.000451819
0.000394347
0.000417738
0.000403527
0.000396107
0.000389234
0.00038361
0.000452179
0.000453214
0.000456894
0.000467785
0.0005021
0.000546953
0.000534725
0.000528286
0.00051956
0.000510742
0.000657685
0.000660205
0.000666461
0.000682532
0.00071087
0.000913543
0.000869231
0.000848554
0.000839809
0.000835612
0.000950066
0.000957662
0.000963854
0.000966074
0.000978913
0.00131414
0.00127796
0.00125807
0.00125202
0.00125186
0.00145209
0.00145468
0.00146147
0.00148312
0.00155392
0.00129724
0.00130417
0.00130414
0.0013031
0.00130252
0.00133446
0.00133884
0.00134217
0.00134558
0.00136885
0.00173868
0.00172046
0.0016987
0.00168548
0.00167966
0.00174174
0.00174441
0.00175131
0.00177048
0.00183017
0.00146915
0.0014791
0.00148105
0.00148138
0.00148064
0.00158161
0.00158448
0.00158814
0.00159372
0.00161171
0.0018669
0.00186628
0.00184685
0.00183174
0.00182389
0.00184408
0.00185146
0.00186582
0.0018884
0.00190039
0.00198391
0.00195413
0.00193423
0.00192271
0.00191699
0.00162234
0.00162068
0.00161445
0.00160176
0.00159342
0.00167132
0.00167932
0.00168956
0.00169608
0.00169862
0.00182178
0.00181893
0.00181513
0.0018107
0.0017963
0.00190722
0.0019347
0.00193995
0.00194123
0.00194176
0.00206289
0.00206226
0.00206065
0.00205401
0.00202098
0.00199879
0.00202707
0.0020333
0.00203527
0.00203543
0.002072
0.0020636
0.00204929
0.0020247
0.00197972
0.00205584
0.00206113
0.00207127
0.00207957
0.00208462
0.0022277
0.00223279
0.00224028
0.00224078
0.00218533
0.00209249
0.00218227
0.00219196
0.00219013
0.00218825
0.00210047
0.00209628
0.00209025
0.00208105
0.00203119
0.00214232
0.00214626
0.00214304
0.0021415
0.00214421
0.00212462
0.00198357
0.00200799
0.00197154
0.00206432
0.00219964
0.00183448
0.00200488
0.00221424
0.00186278
0.00220279
0.00292976
0.00205495
0.00218604
0.00226985
0.00255661
0.00202365
0.00164909
0.00114547
0.00072232
0.000442834
0.000379047
0.0004748
0.000624592
0.000721374
0.000703508
0.000602143
0.000485913
0.000396842
0.00036669
0.000327629
0.000429198
0.000433199
0.000429961
0.000426554
0.000424513
0.000327529
0.000334056
0.00033844
0.000339106
0.000345186
0.000590562
0.000582724
0.000565107
0.000550671
0.000541728
0.000783029
0.000792498
0.000804991
0.000817138
0.000834659
0.000771744
0.000754718
0.000752471
0.000748275
0.000742802
0.00113784
0.00114854
0.0011677
0.00119629
0.00122548
0.00138901
0.00135469
0.00133864
0.00132661
0.00131851
0.00125387
0.00125749
0.00126103
0.00126524
0.00128597
0.00166719
0.0016458
0.00161978
0.00160272
0.0015938
0.00166478
0.00167064
0.00168028
0.00169405
0.00171395
0.00134302
0.00133021
0.00133409
0.00133939
0.00134255
0.00146802
0.00146787
0.00146755
0.00146798
0.00147992
0.00155909
0.00156262
0.00156142
0.00155842
0.00155585
0.00165076
0.00165903
0.00166787
0.00166731
0.00163255
0.00169348
0.00172832
0.00172497
0.00171333
0.00170194
0.00193042
0.0019379
0.00194929
0.00195287
0.00190047
0.00191648
0.00194592
0.00194947
0.0019505
0.00195053
0.00197234
0.00197103
0.00196659
0.00195565
0.00190815
0.00204857
0.00209384
0.00210615
0.00211218
0.00211585
0.00219983
0.00220115
0.00220223
0.00219767
0.00215596
0.00222445
0.00224524
0.00225031
0.00225542
0.00225961
0.00234
0.00234584
0.00235435
0.00235043
0.00226584
0.00207681
0.00204444
0.00205481
0.00207554
0.00209046
0.00238786
0.00238411
0.00237891
0.00237045
0.00232569
0.00228252
0.0022669
0.00226664
0.00227116
0.00227448
0.00224865
0.00225455
0.00226149
0.00225422
0.00217949
0.00202613
0.00213973
0.00214965
0.00214276
0.00213597
0.00226791
0.00227434
0.00228559
0.00227992
0.00214897
0.00189606
0.0019217
0.00193376
0.00194209
0.00194712
0.00208766
0.00209151
0.00209384
0.00208422
0.00204498
0.00204236
0.00194338
0.00193602
0.00204431
0.00206017
0.00192613
0.0019836
0.00199375
0.00199764
0.00199901
0.00206776
0.00206938
0.00207135
0.00207005
0.00201197
0.0019771
0.0020036
0.00195348
0.00192053
0.00191138
0.001945
0.0019613
0.00196627
0.00190569
0.00196199
0.00199812
0.00197602
0.0019774
0.00218861
0.00207065
0.00201878
0.00207107
0.00201972
0.0019949
0.00195682
0.00187718
0.00190388
0.00197098
0.00202024
0.00202448
0.00206762
0.00204441
0.00200398
0.00199015
0.00197734
0.00198584
0.00204411
0.00210249
0.00205156
0.00202335
0.00198283
0.00193605
0.00192011
0.0019837
0.00201405
0.00200634
0.00196036
0.0019867
0.00198841
0.0019416
0.00193653
0.00197841
0.00194935
0.00192222
0.00191159
0.00195052
0.00194593
0.00188109
0.00188144
0.00197268
0.00191675
0.00185933
0.00192877
0.00194136
0.00197809
0.00201701
0.001992
0.00196112
0.00193546
0.00196366
0.00198762
0.0019287
0.00195376
0.00199968
0.00194913
0.00195609
0.00194324
0.00195293
0.00205014
0.00196234
0.00198239
0.00207993
0.00187709
0.00184758
0.00166635
0.00144746
0.00117948
0.000922515
0.000832393
0.000876131
0.00117076
0.00126561
0.00153798
0.00166971
0.00169205
0.00170352
0.00171213
0.00200056
0.00201585
0.00203304
0.00204178
0.00201468
0.00146409
0.00151183
0.00151987
0.00152033
0.00151713
0.00214028
0.00216018
0.00218575
0.00219962
0.00218456
0.00159746
0.00154974
0.0015448
0.00154763
0.00154825
0.00217936
0.00219932
0.00222914
0.00226102
0.00225284
0.00225413
0.00230312
0.00230324
0.00229119
0.00227995
0.00168154
0.00168348
0.00168144
0.00167623
0.00166435
0.00163618
0.00166462
0.00166134
0.00165781
0.0016548
0.00203152
0.00204066
0.00205361
0.00207458
0.00215694
0.00169531
0.00164001
0.00163514
0.00163727
0.00163652
0.00178036
0.00178242
0.0017858
0.00179556
0.00183996
0.00219953
0.00211443
0.00208662
0.00207452
0.00206752
0.00199216
0.00199986
0.00201444
0.0020422
0.00207567
0.00214912
0.00206887
0.00204719
0.00204013
0.00203709
0.00199916
0.00200295
0.00201327
0.00203664
0.00207964
0.00204928
0.00200569
0.00200006
0.00200225
0.00200497
0.00175738
0.00171564
0.00171102
0.00171123
0.00171005
0.00178342
0.00178403
0.0017835
0.00178576
0.00181187
0.00206519
0.00203409
0.00201369
0.0020047
0.00200208
0.00198025
0.00197764
0.00197778
0.00199262
0.00206207
0.00208076
0.00207892
0.00208231
0.00208275
0.00208182
0.00212539
0.00212536
0.002125
0.0021223
0.00211487
0.00220359
0.00211759
0.00195392
0.00173912
0.00163628
0.0016313
0.00163366
0.00163108
0.00162678
0.00184814
0.00184917
0.00185315
0.00187028
0.00190542
0.00190652
0.00188724
0.00187937
0.00187987
0.00188207
0.00169067
0.00169599
0.00170092
0.00169728
0.00168499
0.00151422
0.00149333
0.00148109
0.00147697
0.00147579
0.00123813
0.00123804
0.00124178
0.00125692
0.00128751
0.00124203
0.0012238
0.0012174
0.00121742
0.00121879
0.00107701
0.00108586
0.0010949
0.0010975
0.00109265
0.0011486
0.00118069
0.00118045
0.00116938
0.00115823
0.00081958
0.000816755
0.000815277
0.00081984
0.000837793
0.000853754
0.000834896
0.00083518
0.000839862
0.000843522
0.000794722
0.000796713
0.000799684
0.000805166
0.00082176
0.000840192
0.000850041
0.000843482
0.000832419
0.000823407
0.000590318
0.000588138
0.000586176
0.000587834
0.000601064
0.000577787
0.000542988
0.000537266
0.000537883
0.000539061
0.00053901
0.0005423
0.00054636
0.00055131
0.000565085
0.000557759
0.000549777
0.000541862
0.000532556
0.000524588
0.000571193
0.000571346
0.000573603
0.000583434
0.000615981
0.000744547
0.0007116
0.000701148
0.000699348
0.000699323
0.000612768
0.000536089
0.000571379
0.000553084
0.000545422
0.000539966
0.000535885
0.000454464
0.000448674
0.000477278
0.00047983
0.000476497
0.000470633
0.000465402
0.000458627
0.000456942
0.000456646
0.000462256
0.000491204
0.000445647
0.000442116
0.000439314
0.000435069
0.000431288
0.000373056
0.000372755
0.000372962
0.000375467
0.000387052
0.000334239
0.000323793
0.000321044
0.000322541
0.000324359
0.000365725
0.000367783
0.000371704
0.000381993
0.000408623
0.000433654
0.000423998
0.00041991
0.000413227
0.000406514
0.000550853
0.000554653
0.000563235
0.00058035
0.000606182
0.000820853
0.000773347
0.00075493
0.000745218
0.000738934
0.000776593
0.000784013