/*--------------------------------*- C++ -*----------------------------------*\
  =========                 |
  \\      /  F ield         | OpenFOAM: The Open Source CFD Toolbox
   \\    /   O peration     | Website:  https://openfoam.org
    \\  /    A nd           | Version:  7
     \\/     M anipulation  |
\*---------------------------------------------------------------------------*/
FoamFile
{
    version     2.0;
    format      ascii;
    class       volVectorField;
    location    "8";
    object      wallShearStress;
}
// * * * * * * * * * * * * * * * * * * * * * * * * * * * * * * * * * * * * * //

dimensions      [0 2 -2 0 0 0 0];

internalField   uniform (0 0 0);

boundaryField
{
    outlet1
    {
        type            calculated;
        value           uniform (0 0 0);
    }
    Wall
    {
        type            calculated;
        value           nonuniform List<vector> 
40276
(
(0.00042598 4.95547e-05 0.000168433)
(-0.00018691 -8.58849e-06 0.000415541)
(-0.000190634 -7.83323e-06 0.000407483)
(9.30102e-05 -8.65306e-06 0.000157008)
(8.01412e-05 2.19503e-05 0.000155993)
(8.36759e-05 5.86293e-05 0.000162592)
(9.87759e-05 4.28763e-05 0.000171452)
(0.000132829 3.67685e-05 0.00018491)
(0.000102814 2.5583e-05 0.000166799)
(9.992e-05 6.47253e-06 0.000171746)
(0.000386138 3.83604e-05 0.000409308)
(0.000466777 1.56861e-05 0.000443836)
(0.000584875 4.02058e-05 0.000940129)
(0.000562664 3.84989e-05 0.000870552)
(0.000486048 -1.55634e-05 0.000333694)
(0.000434476 1.6976e-06 0.00036284)
(0.000393301 2.0586e-05 5.75995e-05)
(0.00035162 2.35291e-05 2.38647e-05)
(-0.000111863 -1.10372e-05 -0.000172667)
(-0.000120924 -3.79421e-05 -0.00019245)
(-0.000155392 3.92428e-05 0.000211438)
(-0.000186512 4.42892e-05 0.000198286)
(-0.00011994 3.22364e-05 6.7831e-05)
(-0.000138811 2.9649e-05 6.41457e-05)
(-0.000100061 2.37139e-05 4.32604e-05)
(-0.000112325 2.47607e-05 3.74758e-05)
(-0.000123632 4.10069e-05 2.18504e-05)
(-0.000121103 4.14303e-05 1.59795e-05)
(-0.000181794 5.8698e-05 3.28708e-05)
(-0.000163156 5.0365e-05 2.39727e-05)
(-0.000120582 3.93138e-05 7.11336e-05)
(-0.000134942 4.71212e-05 7.85325e-05)
(-5.25622e-05 -3.17582e-06 0.000159647)
(-4.68055e-05 -4.86424e-06 0.000148377)
(-6.2581e-05 1.02843e-05 8.09791e-06)
(-6.14486e-05 1.16785e-05 7.64734e-06)
(0.00056619 6.62944e-05 0.000215029)
(0.000615507 4.81544e-05 0.000237991)
(0.00105565 0.000255362 0.000403229)
(0.00119364 0.000327528 0.000424655)
(0.000990238 6.35006e-05 0.000163655)
(0.000951001 3.5795e-05 0.000190743)
(-5.03055e-05 -1.42948e-05 -0.000385746)
(-3.03524e-05 -1.08424e-05 -0.000349507)
(-5.34393e-05 -2.14998e-06 -0.000351061)
(-4.50221e-05 -6.13565e-06 -0.000288258)
(-7.36769e-05 -3.80491e-07 -0.000296303)
(-5.63122e-05 -3.16988e-06 -0.000238915)
(-6.50681e-05 -8.24745e-07 -0.000205415)
(-6.32628e-05 1.03687e-06 -0.000170526)
(-5.18187e-05 -1.1435e-06 -0.000139474)
(-6.38145e-05 1.33731e-06 -0.000146385)
(-5.50713e-05 -1.7036e-07 -0.000116472)
(-5.82257e-05 2.17191e-06 -0.000117892)
(0.000441675 8.12511e-05 0.00026125)
(0.000459872 9.52887e-05 0.000230439)
(-1.70471e-05 1.30896e-05 0.000130648)
(6.41204e-05 2.19997e-05 0.000191099)
(-9.91672e-06 8.48361e-06 0.000133271)
(-0.000454317 -0.000151263 -0.000434727)
(-0.00048359 -0.000125914 -0.000445217)
(1.90617e-05 3.45448e-05 0.000291568)
(-1.27957e-05 -1.18235e-05 0.000225367)
(1.05625e-05 -1.05829e-06 -4.71062e-05)
(1.33819e-05 2.88973e-06 -4.40301e-05)
(6.63951e-06 -1.14026e-08 -4.30342e-05)
(2.01598e-06 -2.70718e-06 -4.15625e-05)
(1.15507e-05 5.85794e-08 -4.4029e-05)
(-0.000116993 -1.91724e-05 -0.00010648)
(-0.000128987 -8.63369e-06 -0.000115621)
(-5.2649e-05 4.20346e-06 -9.59452e-05)
(-5.35685e-05 9.93387e-08 -9.76903e-05)
(-1.75841e-05 1.31761e-06 -1.78042e-05)
(-1.7573e-05 1.33511e-06 -1.76035e-05)
(-1.59227e-05 1.39155e-06 -1.7296e-05)
(-1.50585e-05 1.69967e-06 -1.66533e-05)
(-1.71754e-05 7.75319e-07 -1.71174e-05)
(2.3439e-05 -1.69377e-06 -5.74617e-06)
(2.03373e-05 -1.7575e-06 -9.53715e-06)
(-9.6357e-07 4.41873e-06 2.79942e-07)
(-2.26912e-07 -2.25018e-07 2.1134e-07)
(7.70883e-06 -1.14446e-06 -4.0742e-07)
(1.86272e-05 9.72527e-08 1.27959e-05)
(1.80681e-05 3.19449e-07 1.31368e-05)
(2.86073e-05 -1.55282e-06 2.01311e-05)
(5.83736e-06 5.09846e-07 -3.81502e-05)
(1.44196e-06 -1.87437e-06 -3.65286e-05)
(4.68676e-06 9.72644e-07 -3.33912e-05)
(2.58136e-05 -1.77979e-06 1.86564e-05)
(2.46972e-05 -1.32864e-06 1.7808e-05)
(2.11989e-05 -7.49195e-07 1.57743e-05)
(-4.45882e-05 -4.65002e-06 -4.03514e-05)
(4.66498e-07 -1.16883e-06 -3.20455e-05)
(3.56716e-06 1.28261e-06 -2.93337e-05)
(-2.09632e-07 -5.88121e-07 -2.82984e-05)
(-8.61659e-07 -3.35254e-07 -2.48384e-05)
(-1.45473e-06 5.46972e-08 -2.18374e-05)
(-2.2624e-06 2.17e-07 -1.97667e-05)
(-5.60888e-06 -3.27929e-07 -1.5912e-05)
(-6.2639e-06 -1.2404e-07 -1.50025e-05)
(-7.09539e-06 9.95626e-10 -1.46215e-05)
(-1.01063e-05 -2.94227e-07 -1.46748e-05)
(-1.03321e-05 -2.15579e-07 -1.50611e-05)
(-5.00591e-05 -9.95554e-07 -4.39156e-05)
(-1.06099e-05 -3.11331e-08 -1.5899e-05)
(-1.89061e-05 -3.57162e-06 -2.30738e-05)
(-1.5755e-05 -3.54746e-06 -1.84369e-05)
(-1.04648e-05 -1.26227e-07 -1.64737e-05)
(-1.03789e-05 3.80789e-08 -1.74935e-05)
(-1.0005e-05 -5.71552e-07 -1.78284e-05)
(-1.01909e-05 4.25775e-08 -1.89378e-05)
(-9.65842e-06 -6.31207e-07 -1.96972e-05)
(-9.07191e-06 -2.75796e-07 -2.01074e-05)
(-8.8361e-06 -1.07683e-06 -2.16373e-05)
(-8.50937e-06 -1.69169e-06 -2.02801e-05)
(4.18547e-06 -8.89564e-07 -2.64779e-05)
(4.05978e-06 -2.89854e-06 -2.7817e-05)
(2.60106e-06 -2.90679e-06 -2.62495e-05)
(-0.000277091 -6.29602e-05 0.000486905)
(-0.000280154 -6.14573e-05 0.000441492)
(-1.51395e-05 -1.24519e-06 5.38864e-06)
(-1.25931e-05 -1.41774e-06 6.58746e-06)
(-4.17392e-05 -1.77364e-06 1.62313e-05)
(-3.61329e-05 -3.10467e-06 1.50945e-05)
(-4.37475e-06 -8.31486e-06 -5.41616e-06)
(-2.07279e-06 -8.2101e-06 -2.66668e-06)
(-0.000127373 2.52048e-05 0.000183895)
(-0.000110609 3.39198e-05 0.000156415)
(-0.000160192 -1.78512e-05 0.000274284)
(-0.000139966 -2.39158e-05 0.000236104)
(-0.000102821 -6.20681e-06 0.000172639)
(-8.9959e-05 -9.26093e-06 0.000148585)
(-0.000156134 9.36367e-05 0.00046621)
(-0.000216321 0.000169305 0.000651377)
(7.31488e-06 -1.18359e-05 0.00018856)
(-1.35708e-06 -4.57714e-06 0.000159359)
(-0.000102169 2.75797e-05 0.000192957)
(-5.58139e-05 1.33685e-06 0.000167376)
(-0.000179908 -5.73361e-05 0.000490164)
(-0.000179535 -4.04918e-05 0.000490892)
(-0.000179401 -4.53778e-05 0.000525207)
(-0.000195068 -2.1624e-05 0.000526684)
(-0.000559782 1.75781e-06 -0.000151391)
(-0.000642359 2.47187e-06 -0.000183572)
(-2.27552e-05 -7.96786e-05 9.95787e-06)
(-2.65495e-05 -7.89425e-05 1.19239e-05)
(-2.14414e-05 -4.38718e-05 6.54944e-05)
(-2.52058e-05 -5.36613e-05 8.18353e-05)
(-2.90456e-05 -5.25564e-05 6.60922e-05)
(-2.32146e-05 -4.04597e-05 5.3753e-05)
(-1.54686e-05 -8.61463e-05 8.48782e-06)
(-1.98958e-05 -9.83539e-05 6.53325e-06)
(-2.34949e-05 -8.34769e-05 8.81933e-06)
(-2.18825e-05 -8.64845e-05 9.21271e-06)
(-2.31358e-05 -0.000128636 -1.56103e-05)
(-1.99742e-05 -0.000111411 -1.41258e-05)
(-7.6429e-06 -5.66219e-05 -3.31689e-06)
(-9.87879e-06 -5.05372e-05 -4.75771e-06)
(-6.0986e-05 -3.1247e-05 9.45556e-05)
(-5.57743e-05 -3.30728e-05 8.93561e-05)
(9.03213e-05 3.80927e-06 -0.000233533)
(9.8478e-05 -5.11622e-06 -0.000218226)
(-0.000137164 -5.95227e-05 -1.25086e-05)
(-0.000135988 -6.65125e-05 -1.47035e-05)
(-0.000298182 -4.79959e-05 0.000147178)
(-0.000320066 -5.21291e-05 0.000138592)
(-0.000291691 -7.47069e-05 -2.60572e-05)
(-0.000285073 -6.19127e-05 -3.5267e-05)
(-0.000174235 0.000192955 0.000237229)
(-0.00016812 0.000241529 0.000220338)
(-0.000249017 -4.48391e-05 1.31701e-05)
(-0.000131131 -4.67533e-05 -1.84855e-05)
(-0.000206795 -7.74799e-05 7.46944e-05)
(-0.000178168 -7.59015e-05 6.31623e-05)
(-0.000227661 -5.19046e-05 5.88338e-05)
(-6.74148e-05 -4.22694e-05 -7.10716e-06)
(-3.91069e-05 -2.09144e-05 6.05074e-05)
(-3.22271e-05 -1.93923e-05 5.58612e-05)
(0.000543974 -0.000212388 0.000411637)
(0.000499746 -0.000187001 0.000343852)
(0.000479672 -0.000265741 0.000227567)
(0.000454083 -0.000197532 0.00025785)
(0.000462605 -0.000228486 0.00025617)
(0.000230846 -0.000146247 0.000185433)
(0.000325283 -0.000204022 0.000216488)
(0.000254519 -0.000148356 0.00020009)
(0.000422906 -0.000189355 0.000347688)
(0.00044506 -0.000231822 0.000330968)
(0.000440236 -0.000227729 0.000288167)
(0.000338701 -0.000223923 0.000188925)
(0.000442806 -0.000275149 0.000188626)
(0.000369025 -0.000201809 0.00024284)
(0.000138501 -6.87038e-05 0.000160429)
(0.000224282 -0.000147611 0.000185213)
(0.000172718 -8.53342e-05 0.000180493)
(0.000128081 -5.32264e-05 0.00016467)
(7.35502e-05 4.84536e-05 0.000156001)
(0.000287908 0.000112596 4.09917e-05)
(0.000349465 0.000111756 9.28674e-05)
(0.000298724 7.46543e-05 0.000105555)
(0.000316353 5.93467e-05 4.42277e-05)
(0.00037702 6.3257e-05 9.59642e-05)
(0.000340558 9.96872e-05 8.65482e-05)
(0.000305821 7.45517e-05 6.37138e-05)
(9.74822e-05 5.45856e-05 8.50531e-05)
(0.000114617 6.53472e-05 8.44457e-05)
(9.04975e-05 1.28791e-05 0.000137859)
(9.48985e-05 1.87645e-05 0.000136513)
(0.000107795 1.08338e-05 0.000159895)
(8.922e-05 1.54775e-06 0.000144054)
(0.000100598 3.5292e-05 0.000133813)
(8.07578e-05 3.62521e-05 0.000102046)
(7.87332e-05 3.96567e-05 7.46438e-05)
(7.28825e-05 2.02696e-05 9.22993e-05)
(6.65764e-05 9.17734e-06 0.000107435)
(5.12718e-05 1.19804e-06 8.52169e-05)
(6.51636e-05 -3.91783e-06 0.000103418)
(5.60715e-05 1.77515e-05 7.20125e-05)
(4.82597e-05 1.55621e-05 6.14381e-05)
(5.1947e-05 1.41081e-05 7.00181e-05)
(0.00015428 9.32852e-05 4.35572e-05)
(0.000186214 0.000103217 6.30037e-05)
(0.000190531 9.32269e-05 7.42035e-05)
(0.000182489 8.81882e-05 4.30473e-05)
(0.000113491 6.7391e-05 7.23381e-05)
(0.000130829 7.66452e-05 4.7584e-05)
(0.000139883 8.25074e-05 2.73273e-05)
(0.000142484 7.02507e-05 3.87593e-05)
(0.000124172 6.80165e-05 4.34069e-05)
(0.000271423 0.000111341 3.36462e-05)
(0.000223507 0.000105753 3.11972e-05)
(0.000288375 0.000102312 4.7842e-05)
(0.000262335 7.43489e-05 3.29783e-05)
(0.000234314 9.78646e-05 1.95551e-05)
(0.000214593 7.36906e-05 2.56312e-05)
(8.05556e-05 4.82699e-05 5.12034e-05)
(8.67397e-05 4.61576e-05 5.6992e-05)
(6.90549e-05 3.41835e-05 6.37575e-05)
(0.000105926 6.50788e-05 4.43176e-05)
(5.9441e-05 2.80587e-05 5.55596e-05)
(7.13189e-05 4.3956e-05 3.46269e-05)
(0.000117674 6.39832e-05 5.40237e-05)
(0.000154353 8.04138e-05 2.25737e-05)
(7.66213e-05 5.14507e-05 7.75846e-06)
(8.90244e-05 4.89043e-05 2.57034e-05)
(7.78972e-05 5.05002e-05 1.98986e-05)
(0.000140785 8.33342e-05 5.47784e-06)
(0.000172313 8.70267e-05 -1.62088e-05)
(0.000155927 6.06748e-05 2.14045e-05)
(0.000151458 7.47959e-05 8.75085e-06)
(0.000315106 2.84079e-05 0.000550921)
(0.00035316 5.73279e-05 0.000640408)
(0.000321103 -1.30784e-06 0.0005728)
(0.000332793 2.90048e-05 0.000588965)
(0.000353869 9.89158e-05 0.000392797)
(0.000382214 0.000104068 0.000466311)
(0.000273977 9.41485e-05 0.000383681)
(0.000298882 8.836e-05 0.000439208)
(0.000294568 0.000105892 0.000440035)
(0.000276018 8.76196e-05 0.000452442)
(0.00039113 0.000156458 0.000504839)
(0.000327823 0.00013234 0.000378934)
(0.000372991 0.000137875 0.000472058)
(0.000237345 8.98409e-05 0.000384522)
(0.00031796 0.000115592 0.000480209)
(0.000404382 0.000129211 0.000381331)
(0.0003633 0.000134493 0.00045058)
(0.000355921 0.000131114 0.000451233)
(0.000410539 0.000135532 0.000561176)
(0.000426066 0.0001696 0.000496188)
(0.000469204 0.000183614 0.000493594)
(0.000461721 0.00019184 0.000466265)
(0.000450966 0.000158942 0.000557104)
(0.000435547 0.00016351 0.000556978)
(0.000396071 7.25004e-05 0.000461695)
(0.000507497 7.79999e-05 0.000493369)
(0.000389016 9.16085e-05 0.000475109)
(0.00030163 9.37323e-05 0.0003721)
(0.000380736 9.02475e-05 0.000464179)
(0.000416101 7.01747e-05 0.000404689)
(0.000312237 5.55115e-05 0.000304302)
(0.000337494 0.00010132 0.000365377)
(0.000361728 8.33144e-05 0.000354022)
(0.000365903 9.33894e-05 0.000345837)
(0.000489529 -4.15903e-05 0.000428385)
(0.000503845 -5.94248e-05 0.000426075)
(0.000515264 -0.000137232 0.000413921)
(0.000403183 -6.2362e-05 0.000369602)
(0.000484894 -0.000117675 0.000325401)
(0.000380822 -9.26872e-06 0.000340167)
(0.00052868 -0.000127822 0.000354013)
(0.000362445 -2.78689e-05 0.000292493)
(0.000467351 -9.79119e-05 0.000284663)
(0.000546167 -0.000206618 0.000270695)
(0.00034163 5.7639e-05 0.000355037)
(0.000341237 8.56534e-05 0.000373168)
(0.000380477 2.47021e-05 0.000311159)
(0.000378136 6.3986e-05 0.000328606)
(0.000395401 0.000142191 0.000376989)
(0.000429695 0.000148162 0.000509338)
(0.000427558 0.000146135 0.000456754)
(0.000441832 0.000127151 0.000371139)
(0.000497478 0.00016222 0.000414967)
(0.00049691 0.000189988 0.000523211)
(0.000447237 0.000158378 0.000522262)
(0.000472466 0.000155845 0.000551336)
(0.000471437 0.000172334 0.000397726)
(0.000451525 0.000158878 0.000523946)
(0.000451728 0.000164005 0.000522662)
(0.000572538 0.000208345 0.000656638)
(0.000546031 0.00019579 0.000512604)
(0.000401796 0.000116677 0.000368939)
(0.000569712 0.000179502 0.000420884)
(0.000452415 0.000104393 0.00039263)
(0.000581536 0.000146925 0.000398908)
(0.00051342 0.000178083 0.000439322)
(0.000518172 0.00016293 0.000511035)
(0.00069444 0.000261683 0.000523697)
(0.00055016 0.000186879 0.000433042)
(0.000525496 0.000159642 0.000456319)
(0.000734945 0.000258682 0.000483581)
(0.000567971 0.000245596 0.000484082)
(0.000604423 0.000209249 0.000591682)
(0.000559772 0.000182131 0.000624924)
(0.000662589 0.000226092 0.000620774)
(0.000660192 0.000231412 0.000599447)
(0.000350141 0.000140443 0.000456021)
(0.000341674 0.000131173 0.000450294)
(0.000234936 7.0586e-05 0.000425311)
(0.000338696 0.000128654 0.000488397)
(0.000426019 0.000121344 0.000632152)
(0.000389702 0.000111725 0.000580579)
(0.000378318 0.000146583 0.000491819)
(0.00039783 0.000154543 0.000510845)
(0.000380981 0.000147639 0.00055999)
(0.000362337 6.24657e-05 0.000647807)
(0.000313039 4.3241e-05 0.00057966)
(0.000367545 0.000108794 0.000607689)
(0.000350311 9.55317e-05 0.000603049)
(0.000313362 4.26087e-05 0.000507313)
(0.000424341 0.000170676 0.000538102)
(0.000449175 0.000139183 0.000627605)
(0.00040074 0.000122699 0.000610777)
(0.000386313 -4.89502e-06 0.000637756)
(0.000475783 0.000144423 0.00071121)
(0.000357675 5.97604e-05 0.000604802)
(0.000463445 0.00018644 0.000524228)
(0.000502356 0.000195289 0.000562637)
(0.000447495 0.000141247 0.000624641)
(0.000438237 0.000175763 0.000559612)
(0.000506392 0.000204692 0.000563397)
(0.000503241 0.00012744 0.000695149)
(0.000513551 0.000144992 0.000782385)
(0.000409357 4.8063e-05 0.000674439)
(0.000375562 4.62082e-05 0.000614808)
(0.000407476 7.79028e-05 0.00064894)
(0.000462767 0.000130132 0.000689796)
(0.000395095 7.45897e-05 0.000607298)
(0.000513996 0.00021965 0.000602174)
(0.000512752 0.000105877 0.000749914)
(0.000592743 0.00019172 0.000852381)
(0.000282151 1.17088e-05 0.000492642)
(0.000293346 5.54564e-05 0.000501425)
(0.000357838 0.000131846 0.000559889)
(0.000376641 8.38217e-05 0.000637929)
(0.000354939 2.62757e-05 0.000588587)
(0.000437804 9.36562e-05 0.000695297)
(0.000335998 -1.2152e-05 0.000568153)
(0.000338063 4.03379e-05 0.000559415)
(0.000431371 0.000143489 0.000678166)
(0.000360046 4.59234e-05 0.000612704)
(0.000314923 3.71381e-05 0.000528484)
(0.000383277 -4.6684e-06 0.000632444)
(0.000332898 4.29331e-05 0.00055913)
(0.000353991 4.60402e-05 0.000583703)
(0.00043031 4.28886e-05 0.000703027)
(0.000336256 8.75411e-05 0.000578279)
(0.00033517 5.99243e-05 0.000565062)
(0.000427568 -5.75947e-05 0.000655488)
(0.00047913 0.000129167 0.000754293)
(0.000412097 -2.1275e-05 0.000693755)
(0.000524356 6.56636e-05 0.000857411)
(0.000400303 1.27641e-05 0.00066876)
(0.000420544 3.54275e-05 0.000685233)
(0.000529798 0.000160065 0.000769342)
(0.000424729 5.37577e-05 0.000679037)
(0.00048545 3.53753e-05 0.000772914)
(0.000523086 4.52417e-05 0.000857208)
(0.000533175 1.93985e-05 0.000855966)
(0.000420552 3.56929e-05 0.000674043)
(0.000475577 4.16334e-05 0.000754637)
(0.000425241 1.51222e-05 0.000675368)
(0.000485141 4.92578e-05 0.000767817)
(0.000547503 0.000176194 0.000684726)
(0.000535839 0.000192863 0.000612518)
(-2.10044e-05 -4.91104e-05 0.000160203)
(0.000566281 0.00015454 0.000774832)
(0.000492526 0.000140064 0.000663652)
(0.000615632 0.000227881 0.000663757)
(0.000574734 0.000222061 0.000599831)
(0.000610027 0.000214986 0.000673624)
(-2.52619e-05 -4.8786e-05 0.000159643)
(0.000543978 0.000173418 0.000710281)
(0.000563875 0.000208823 0.000656982)
(0.000611073 0.000229658 0.000684999)
(0.000555973 0.000168641 0.00076433)
(0.000625191 0.000178696 0.000912278)
(-2.29027e-05 -4.85675e-05 0.000156921)
(0.000469036 7.28047e-05 0.000727643)
(0.000433591 6.33868e-05 0.00071031)
(0.000467305 9.72412e-05 0.000705576)
(0.000526833 5.99601e-05 0.000795666)
(0.000464248 0.000107408 0.000702687)
(-2.53723e-05 -3.80806e-05 0.000159934)
(0.000576083 0.000236523 0.000662802)
(0.000594691 0.00012182 0.000836882)
(0.000682064 0.000217219 0.000929844)
(0.000656187 0.000219428 0.000773166)
(0.000714972 0.000252486 0.000647816)
(0.000771783 0.000284964 0.000655729)
(0.000645821 0.000190868 0.000832781)
(0.000604311 0.000175689 0.000745336)
(0.000633571 0.000257756 0.000626365)
(0.00066729 0.000237421 0.000678536)
(0.000642126 0.000203984 0.000758707)
(0.000711621 0.000245302 0.000809239)
(0.000736765 0.00028326 0.000775888)
(0.00065759 0.000204896 0.000836288)
(0.000684736 0.000171829 0.000940272)
(0.000561695 0.000137879 0.000782903)
(0.000626036 0.000139898 0.0009739)
(0.000509433 0.000105146 0.00075174)
(0.000587136 8.11621e-05 0.00088827)
(0.000729897 0.000241409 0.000925013)
(0.000606093 0.000196499 0.000765571)
(0.00064493 0.000168818 0.000920179)
(0.000537129 8.98902e-05 0.000866636)
(0.000556871 0.000150267 0.000787861)
(0.000728416 0.000132235 0.00102244)
(0.000640508 0.000146549 0.000994243)
(0.000591121 6.60539e-05 0.0009491)
(0.000592514 2.00459e-05 0.000943831)
(0.000474706 2.94082e-05 0.000787828)
(0.000467275 6.58862e-05 0.000733451)
(0.000601901 0.000119949 0.000871095)
(0.000614424 0.000126679 0.000960205)
(0.00057728 2.77513e-05 0.00090439)
(0.000593214 3.84223e-05 0.000934363)
(0.000602529 -3.93138e-05 0.000936542)
(0.000584065 3.89545e-05 0.000894172)
(0.000668865 0.000132074 0.000971155)
(-3.13454e-05 -4.31789e-05 0.000168321)
(0.000500943 -2.17213e-06 0.000820649)
(0.00045592 5.67527e-05 0.00071808)
(0.000649315 0.000150289 0.000956813)
(0.000676187 0.000190031 0.00101343)
(0.000564881 -1.65425e-06 0.000944016)
(0.000703088 6.28558e-05 0.00111045)
(0.000525962 4.13338e-05 0.000827661)
(0.000649491 2.97259e-05 0.00099637)
(0.000519163 5.21563e-05 0.000821514)
(0.000500102 -1.91014e-05 0.000761815)
(0.000642403 -9.02877e-05 0.000952503)
(0.000688276 3.1982e-05 0.00109107)
(0.000689076 4.91191e-07 0.00108021)
(0.000367934 -5.07888e-05 0.000535553)
(0.000289954 2.00674e-05 0.000449996)
(0.000324815 9.82406e-06 0.000466675)
(0.000314276 1.00104e-05 0.00048116)
(0.000226011 4.09213e-05 0.000404241)
(0.000300291 2.82359e-05 0.000465433)
(0.000383912 3.1503e-06 0.000499225)
(0.000301064 4.68107e-05 0.000470707)
(0.000349763 4.49871e-05 0.000621425)
(0.000351418 6.20835e-05 0.00059605)
(-2.31152e-05 -4.18189e-05 0.000153501)
(-2.67829e-05 -4.38515e-05 0.000160399)
(-2.47833e-05 -4.05181e-05 0.00014858)
(-2.62657e-05 -3.68405e-05 0.000149442)
(0.000392507 3.32415e-05 0.000614215)
(0.000355194 7.5524e-05 0.000563185)
(0.00042307 1.4841e-05 0.000567853)
(0.000379638 3.21903e-05 0.000510606)
(0.000397739 -1.31636e-05 0.000513458)
(0.000394422 3.90802e-06 0.000484645)
(-2.97073e-05 -3.62309e-05 0.000154817)
(0.000416508 1.9646e-06 0.000536551)
(-3.50297e-05 -2.89037e-05 0.000164892)
(-3.01227e-05 -3.46124e-05 0.000155908)
(0.000447177 1.16781e-05 0.000222801)
(0.000444642 1.56987e-05 0.000271031)
(0.000423572 -1.45229e-05 0.000257378)
(-3.34626e-05 -3.44563e-05 0.000153936)
(-2.65156e-05 -3.83341e-05 0.000164563)
(-2.59114e-05 -4.18735e-05 0.000161108)
(-3.23143e-05 -3.37778e-05 0.000174999)
(-3.38553e-05 -4.23151e-05 0.000182603)
(-2.96985e-05 -3.03021e-05 0.000166614)
(-2.85626e-05 -2.62545e-05 0.000159418)
(-3.46597e-05 -3.44946e-05 0.000159006)
(0.000395874 6.34976e-05 7.1954e-05)
(0.000456859 6.40938e-05 0.000137469)
(0.000375809 3.27383e-05 8.01299e-05)
(0.00036122 6.63778e-05 5.80675e-05)
(0.000376553 4.67542e-05 8.16402e-05)
(0.00043792 1.06908e-05 0.000125531)
(0.000423594 1.20725e-05 0.000187476)
(0.000449768 -3.09032e-05 0.00019581)
(0.000443566 1.22643e-07 0.000162082)
(0.000423673 -8.16823e-07 0.000204122)
(0.000412583 2.84336e-05 8.86659e-05)
(0.000430307 -9.00994e-06 9.52195e-05)
(0.000437389 -9.34801e-06 0.00038627)
(0.000415176 5.44627e-06 0.000421097)
(0.000401773 -2.37619e-06 0.000438067)
(0.000363711 5.5386e-06 0.00042121)
(0.000394996 3.18958e-06 0.000462479)
(0.000332194 2.47382e-05 0.000430082)
(0.000463685 -5.12457e-06 0.000415305)
(0.000469851 -2.59797e-05 0.000355566)
(0.000473862 -1.54503e-05 0.000341024)
(0.000414146 -4.94768e-06 0.000354723)
(0.00039357 -2.3222e-05 0.000444397)
(0.000409023 -1.50116e-05 0.000399385)
(0.000434965 2.22149e-05 0.000515419)
(0.000502896 -3.65185e-05 0.000248222)
(0.000463659 -5.23586e-05 0.000333134)
(0.000474559 -5.35477e-05 0.000280079)
(0.00048806 -3.4864e-05 0.000353962)
(0.000523048 -8.8096e-05 0.000228387)
(0.000461824 -5.02543e-05 0.000385897)
(0.000429297 -4.41196e-05 0.000449084)
(0.000469261 -7.18702e-05 0.000430342)
(0.000473066 -1.59342e-05 0.000520067)
(0.000554572 -0.000103298 0.00040904)
(0.000513225 -0.000103021 0.000337319)
(0.0005254 -9.29285e-05 0.000273784)
(0.00051017 -6.97353e-05 0.000343685)
(0.000457021 -5.01261e-05 0.000177197)
(0.000454081 -4.0914e-05 0.000141359)
(0.000485932 -4.41524e-05 0.000181889)
(0.000333163 7.49652e-05 2.82821e-05)
(0.000343046 5.71417e-05 5.52454e-05)
(0.000296287 8.38053e-05 7.13891e-06)
(0.000320176 6.97989e-05 2.56468e-05)
(0.000364068 3.10481e-05 4.73836e-05)
(0.000409034 -1.80344e-06 6.99491e-05)
(0.000336031 4.5422e-05 4.66601e-05)
(0.000227271 8.27019e-05 -3.71349e-06)
(0.000309305 8.95283e-05 1.29662e-05)
(0.000143845 7.06198e-05 3.74172e-05)
(0.000154468 6.74442e-05 1.36099e-05)
(0.000256295 9.71603e-05 6.94882e-06)
(0.000270283 7.1897e-05 4.21857e-05)
(0.000248545 3.98645e-05 -1.72845e-05)
(0.000291226 4.84796e-05 2.65465e-05)
(0.000350145 3.78024e-05 1.83636e-05)
(0.000246422 7.67676e-05 5.36933e-06)
(0.00023576 5.4836e-05 1.03035e-05)
(0.000313577 5.44431e-05 1.66946e-05)
(0.000587132 -0.000138293 0.000193489)
(0.000570474 -0.000141596 0.000348334)
(0.000557919 -0.000138922 0.000275367)
(0.000582812 -0.000127917 0.000352803)
(0.000465198 -3.04342e-05 0.000109054)
(0.00050757 -0.000103891 0.000173229)
(0.000467089 -5.43721e-05 0.000150996)
(0.000471526 -7.5659e-05 0.000154025)
(0.000421748 -1.77758e-05 6.66296e-05)
(0.000457318 -5.96124e-05 0.000100997)
(0.000543725 -0.000111388 0.000137621)
(0.00058799 -0.000130715 0.00017224)
(0.000616053 -0.000198913 0.000242625)
(0.000578319 -0.000137877 0.000165082)
(0.000553362 -0.000147099 0.000195117)
(0.000386181 1.62785e-05 4.04873e-05)
(0.000397409 -8.46499e-06 3.92365e-05)
(0.000427137 -5.80818e-05 9.58493e-05)
(0.00039898 -8.41696e-06 6.91534e-05)
(0.00041505 -3.6211e-05 5.79231e-05)
(0.000328063 3.33929e-05 4.45898e-05)
(0.000375056 -5.13144e-06 4.11954e-05)
(0.000552569 -0.000103339 9.92379e-05)
(0.00058331 -0.00015888 0.000116476)
(0.000602526 -0.000158921 0.000108253)
(0.000465573 -7.01905e-05 0.000109379)
(0.000428479 -3.26837e-05 0.000122444)
(0.000477615 -6.98408e-05 8.85411e-05)
(0.000308284 5.44234e-05 0.000526839)
(0.000326893 3.55679e-05 0.000543531)
(0.000369995 -1.53358e-05 0.000580482)
(0.000368696 7.30523e-06 0.000572552)
(0.000314848 7.36487e-05 0.000531803)
(0.000356952 7.36189e-06 0.000540599)
(0.000456025 -2.70069e-05 0.0006802)
(0.000326723 2.80218e-05 0.000534293)
(0.000358155 1.51036e-05 0.000553527)
(0.000415081 2.54605e-05 0.000639074)
(0.000406527 -1.34392e-05 0.000563296)
(0.000373763 1.06203e-05 0.000527179)
(0.00041825 1.61846e-05 0.000598778)
(0.000485292 -1.87748e-05 0.000689211)
(0.000491738 1.8995e-05 0.000809542)
(0.000369096 4.86914e-05 0.000591396)
(0.000423198 4.88182e-05 0.000684709)
(0.000405655 5.09275e-05 0.000678751)
(0.000433975 1.94835e-06 0.000665876)
(0.000575749 -6.9401e-05 0.00081353)
(0.000532576 -0.000117769 0.000710063)
(0.000441234 6.17168e-05 0.00071782)
(0.000461439 -1.62047e-05 0.000678951)
(0.000414279 3.86994e-06 0.000582427)
(0.000468146 5.45418e-06 0.000665572)
(0.000456732 -4.20958e-05 0.000567572)
(0.000414285 -3.33976e-05 0.000492015)
(0.000464763 -1.51983e-05 0.000590981)
(-3.62056e-05 -2.99882e-05 0.000160884)
(0.000531608 -0.000114079 0.000632573)
(0.00050283 -8.25905e-05 0.000534109)
(0.000546176 -3.27208e-05 0.000662645)
(0.000431846 -2.62505e-05 0.000615921)
(0.000501649 -5.99831e-05 0.000633831)
(0.000569571 -4.652e-05 0.00074333)
(0.000520392 -0.000111048 0.000521159)
(0.000513917 -0.000103486 0.000435577)
(0.000498408 -4.65138e-05 0.000541429)
(0.000635611 -4.31229e-05 0.000968888)
(0.000444613 2.93086e-06 0.000679297)
(-3.63539e-05 -2.58193e-05 0.000148706)
(0.00047485 -2.58915e-05 0.000676489)
(0.00054932 -1.65869e-05 0.000800913)
(0.000620707 -9.3006e-05 0.000870474)
(0.000635918 -0.000137584 0.000803816)
(0.000467806 -7.09511e-05 0.000579314)
(-4.14696e-05 -2.12618e-05 0.00016046)
(0.000581387 -0.000215813 0.000533179)
(0.000604126 -8.56297e-05 0.000721668)
(0.000610944 -0.000106522 0.000826665)
(0.000542032 -0.000114327 0.000677938)
(0.000601796 -7.30188e-05 0.000793694)
(0.000666924 -0.000151677 0.000771001)
(0.000599509 -0.000140794 0.000614039)
(0.00072996 -0.000253389 0.000781368)
(0.000654775 -0.000265254 0.000601382)
(0.000681177 -0.00018296 0.000757459)
(0.000480538 1.24976e-05 0.000751246)
(0.000485462 -4.33046e-05 0.000707632)
(0.000597078 -5.82658e-05 0.000861025)
(0.000639194 -6.35327e-05 0.000952787)
(0.000628053 -0.000162157 0.000867303)
(0.000577266 1.44537e-05 0.000864802)
(0.000653494 -0.000119175 0.000972278)
(0.000618641 5.0345e-05 0.000963244)
(0.000579859 -7.09006e-05 0.00085342)
(0.000570647 -0.000107652 0.000788972)
(0.000680979 -0.000144462 0.000933735)
(0.000564763 -0.000124008 0.000770599)
(0.000619679 -0.000180762 0.000740916)
(0.000700517 -0.000162042 0.000882547)
(0.00079872 -0.000253222 0.000941833)
(0.000616046 -0.000247351 0.000689564)
(0.000735047 -0.000354877 0.00062237)
(0.000743108 -0.000200749 0.000831223)
(0.000618501 -0.000181761 0.000417324)
(0.000514668 -0.000176966 0.000444461)
(0.000602274 -0.000193203 0.000452014)
(0.000584895 -9.7325e-05 0.000593847)
(0.00064112 -0.000177009 0.000593759)
(0.000642912 -0.000218345 0.000409823)
(0.000592029 -0.000207037 0.000362042)
(0.000660385 -0.000217293 0.000253816)
(0.000596648 -0.000163528 0.00034782)
(0.000689833 -0.000254926 0.000419718)
(0.000704301 -0.000299774 0.000290194)
(0.000684912 -0.000247203 0.000390749)
(0.000712718 -0.000267119 0.000595289)
(-4.41857e-05 -1.70977e-05 0.000158702)
(0.000686025 -0.000315171 0.000438686)
(0.000689932 -0.000235702 0.000584376)
(0.000812863 -0.000383148 0.000697922)
(0.000796353 -0.00041231 0.000472384)
(0.000743693 -0.000280251 0.000641747)
(-4.74731e-05 -1.24138e-05 0.00016001)
(0.000774888 -0.000368159 0.000475679)
(0.000814613 -0.000380863 0.000345322)
(-3.5976e-05 -3.43373e-05 0.000183092)
(0.000708468 -0.000277837 0.000447795)
(0.000640758 -0.000216546 0.000261873)
(-4.00245e-05 -2.70566e-05 0.000186338)
(0.000651053 -0.000193659 0.00022139)
(0.000634801 -0.000208992 0.000227851)
(-3.42661e-05 -3.41674e-05 0.000168409)
(0.000706985 -0.000204905 0.000173568)
(-3.74155e-05 -1.67262e-05 0.000169761)
(-4.07023e-05 -2.86375e-05 0.000183196)
(0.000729496 -0.000326584 0.000244863)
(0.00067924 -0.00024506 0.00021904)
(-4.1856e-05 -2.72172e-05 0.00018285)
(0.000674415 -0.000251086 0.000273596)
(0.000397121 -0.000235633 0.000221182)
(-4.53882e-05 -1.98012e-05 0.000178146)
(0.000460845 -0.000284679 0.000180111)
(0.000368022 -0.00022903 0.000177156)
(-4.44118e-05 -2.04493e-05 0.000182269)
(0.000266332 -0.000169791 0.000181756)
(0.000334898 -0.000220675 0.000184228)
(-4.83008e-05 -1.30728e-05 0.000190969)
(0.000241669 -0.000163175 0.000150684)
(0.000293321 -0.000166747 0.000228378)
(-3.71456e-05 -1.96292e-05 0.000164308)
(-3.36593e-05 -1.74136e-05 0.000151553)
(0.000338852 -0.000206528 0.000179414)
(-3.92833e-05 -2.37997e-05 0.000154015)
(-4.11376e-05 -1.82278e-05 0.000168288)
(0.000164147 -9.76139e-05 0.000149285)
(-3.9592e-05 -1.58545e-05 0.000152881)
(-4.35087e-05 -1.32387e-05 0.000166672)
(0.000223652 -0.000144451 0.000170882)
(-4.21067e-05 -1.26308e-05 0.000151048)
(0.000151364 -9.32466e-05 0.000131052)
(8.18142e-05 -3.63002e-05 9.97436e-05)
(0.000138675 -7.22953e-05 0.000150228)
(9.67878e-05 -3.62092e-05 0.000119172)
(6.49819e-05 -2.31888e-05 8.63969e-05)
(0.000108737 -4.47008e-05 0.00012784)
(7.6451e-05 -4.31189e-05 8.21137e-05)
(0.000166384 -8.48037e-05 0.000169653)
(0.000205114 -0.000113571 0.000169144)
(0.000218142 -0.000182445 8.66237e-05)
(0.000353577 -0.000258345 0.000118404)
(0.00025047 -0.000169895 0.000141743)
(9.45122e-05 -7.02585e-05 6.77825e-05)
(0.000208911 -0.000164586 0.000103731)
(0.000150634 -0.000102552 0.000115311)
(0.000106858 -6.93936e-05 0.000101729)