/*--------------------------------*- C++ -*----------------------------------*\
  =========                 |
  \\      /  F ield         | OpenFOAM: The Open Source CFD Toolbox
   \\    /   O peration     | Website:  https://openfoam.org
    \\  /    A nd           | Version:  7
     \\/     M anipulation  |
\*---------------------------------------------------------------------------*/
FoamFile
{
    version     2.0;
    format      ascii;
    class       volScalarField;
    location    "1";
    object      p;
}
// * * * * * * * * * * * * * * * * * * * * * * * * * * * * * * * * * * * * * //

dimensions      [0 2 -2 0 0 0 0];

internalField   nonuniform List<scalar> 
382612
(
0.00234867
0.00232211
0.00221967
0.00222127
0.00218345
0.00261091
0.00232777
0.00208742
0.00204097
0.00185607
0.00193704
0.00192893
0.00184901
0.00220223
0.00211114
0.00237246
0.0023553
0.00243342
0.00225829
0.00233122
0.00238576
0.00245322
0.00252153
0.00264802
0.00261005
0.0025648
0.00252605
0.00324377
0.00331835
0.00337888
0.00342836
0.00324578
0.00322423
0.00319951
0.00316718
0.00303243
0.00249822
0.00241373
0.00255732
0.00263406
0.00270668
0.00277468
0.00276274
0.00272888
0.0026871
0.00264103
0.00256798
0.00258955
0.00262583
0.00265729
0.00278105
0.00272223
0.00266092
0.00259885
0.00246728
0.00250721
0.00244068
0.00231428
0.00247141
0.00249661
0.00253935
0.00266503
0.00269056
0.0028842
0.00248863
0.0023988
0.00289511
0.00303268
0.00311518
0.00335865
0.00339642
0.00340836
0.00341658
0.00378397
0.00376896
0.00374865
0.00371117
0.00355165
0.00317595
0.00334927
0.003419
0.00346423
0.0034956
0.00389995
0.00390302
0.00390144
0.0038501
0.00354315
0.00271096
0.00296524
0.00303076
0.00306282
0.00308386
0.00325719
0.00326682
0.00327597
0.00324372
0.00302887
0.00252778
0.00238848
0.00250665
0.00255869
0.00261502
0.00267895
0.00257816
0.0025566
0.00253397
0.00252769
0.00239826
0.00243714
0.00247772
0.00251063
0.00274884
0.00268087
0.00261384
0.00255075
0.00240169
0.0022736
0.00219275
0.00224194
0.00228208
0.00231226
0.00245985
0.00238726
0.00231918
0.00225302
0.00210392
0.00200395
0.00215373
0.00241776
0.00247124
0.00249785
0.0025125
0.00269842
0.00269997
0.00269964
0.00268576
0.00273315
0.00270461
0.00266983
0.00266069
0.0026478
0.00263644
0.0021542
0.00213417
0.00210967
0.00208074
0.00222432
0.0022766
0.00231845
0.00235455
0.00237973
0.00233684
0.00229722
0.00226614
0.00228153
0.00227762
0.00219916
0.00219907
0.00221798
0.00223713
0.00209858
0.00214633
0.00223238
0.00208916
0.00209015
0.00208871
0.00242965
0.00256487
0.0018572
0.00198825
0.00236178
0.0020684
0.00216188
0.00219825
0.00219714
0.00220468
0.0022152
0.00222046
0.00279745
0.00281015
0.00282907
0.00283623
0.0027365
0.00204703
0.00206641
0.00207507
0.0020866
0.00209637
0.00261477
0.0026357
0.00266601
0.00268785
0.00264649
0.002274
0.00234719
0.00241505
0.00242866
0.00243439
0.00244233
0.0022101
0.0022086
0.0022103
0.00222361
0.00171134
0.00172516
0.00174353
0.00175398
0.0022281
0.00221089
0.00218995
0.00217106
0.00217796
0.00171221
0.00165135
0.00211702
0.00200953
0.0016471
0.00191391
0.002091
0.00188025
0.00206164
0.0019931
0.00186208
0.00158169
0.00185107
0.00184626
0.00159822
0.00150922
0.00180045
0.00178376
0.00144315
0.00171201
0.00189112
0.00186248
0.00169622
0.00174377
0.00190813
0.00199588
0.00202659
0.0023325
0.00218199
0.00230327
0.0024754
0.00225544
0.00209426
0.00218714
0.00221765
0.00225768
0.00230207
0.00263144
0.00261436
0.00258767
0.00252748
0.00296316
0.00295617
0.00294543
0.00293246
0.00358077
0.00356347
0.00354444
0.00349852
0.00328498
0.00297369
0.00289247
0.00297145
0.00301173
0.00303037
0.00304718
0.00262027
0.00261552
0.00259959
0.00257257
0.00258055
0.00314843
0.00315172
0.0031782
0.00320023
0.00321588
0.00323674
0.00321757
0.00318898
0.00316497
0.00316771
0.00352347
0.00353186
0.00353719
0.00355367
0.00356768
0.00380157
0.00379864
0.00379308
0.00377376
0.00366077
0.00356079
0.00373244
0.00378005
0.00380432
0.00381914
0.00436895
0.00437055
0.0043715
0.00433087
0.00403492
0.00319339
0.00329306
0.0033221
0.00335053
0.00337493
0.00330523
0.00329079
0.00327027
0.00322533
0.00301707
0.00269922
0.00284503
0.00290101
0.00293967
0.00296538
0.00342384
0.0034409
0.00346453
0.00345619
0.00325402
0.00217896
0.00225931
0.00228459
0.00231625
0.00234416
0.00276965
0.00284854
0.00287225
0.00288792
0.00289899
0.00254916
0.00252397
0.00249091
0.0024581
0.00235998
0.00297048
0.00307415
0.00306711
0.00303714
0.00301317
0.00217229
0.00215566
0.00213327
0.00211359
0.00206231
0.00274091
0.00274183
0.00271357
0.00268011
0.00265647
0.00198577
0.00198212
0.00197809
0.00198824
0.00205397
0.00207174
0.00205816
0.00206446
0.00207967
0.00209217
0.0024633
0.00248599
0.00251689
0.00255021
0.00260138
0.00203995
0.00194298
0.00193196
0.0019397
0.00194612
0.00241019
0.00242555
0.00244663
0.00246239
0.00243994
0.00214216
0.00216134
0.0021954
0.00220711
0.00221219
0.00221786
0.00209166
0.00208734
0.00208389
0.00209188
0.00181828
0.00182138
0.00183124
0.00183767
0.00209993
0.0020924
0.00208288
0.00207189
0.00205883
0.00183085
0.00210139
0.00207087
0.00207058
0.00207603
0.00207867
0.002003
0.00211862
0.00230222
0.00225707
0.00223848
0.00222579
0.00221629
0.00204071
0.00203977
0.00203838
0.00203955
0.00213235
0.00213346
0.00213348
0.00213566
0.00213326
0.0021309
0.00212962
0.00212748
0.0020566
0.00205833
0.00206492
0.0020688
0.00228737
0.00229544
0.00230317
0.00230869
0.00234605
0.00209336
0.00212305
0.00212504
0.00212759
0.00183813
0.0019546
0.00198972
0.00186108
0.00183384
0.00200683
0.00197726
0.00170795
0.00224066
0.00220507
0.002114
0.00210142
0.00204607
0.0021199
0.00188323
0.00189037
0.00207927
0.00230181
0.00239376
0.00232844
0.00231457
0.00231129
0.0023105
0.00224252
0.00223774
0.00223063
0.00223007
0.00227572
0.00251584
0.00249419
0.00248071
0.00247522
0.00247482
0.00240686
0.00240987
0.00241604
0.00242998
0.00248429
0.00223476
0.00214316
0.00214117
0.00214063
0.0021383
0.00213772
0.00220176
0.00219535
0.0021884
0.00219024
0.00199412
0.00199798
0.00200424
0.0020079
0.0020517
0.00205167
0.00205198
0.00205258
0.00206192
0.00199716
0.00223359
0.00220211
0.00220114
0.00219989
0.00219666
0.00220955
0.0023067
0.00231775
0.00226913
0.00226969
0.0022777
0.00228314
0.00248232
0.00248048
0.00247709
0.00247557
0.0025009
0.00259241
0.00259321
0.00258835
0.00258442
0.00258238
0.00242633
0.00242548
0.0024253
0.00243352
0.00248933
0.00242771
0.00239827
0.00239615
0.00239319
0.00239051
0.00216204
0.00215681
0.00215085
0.00215285
0.00213421
0.00212966
0.00212334
0.00211905
0.00211369
0.0021179
0.00212291
0.00212686
0.00216061
0.00215602
0.00215684
0.00215681
0.00240975
0.00240175
0.00239052
0.00238129
0.00240993
0.00220228
0.00213776
0.00215446
0.00224712
0.00208505
0.00206457
0.00211462
0.00212332
0.00189757
0.00200194
0.00203113
0.00190815
0.00233171
0.00220966
0.00216111
0.00226271
0.00218443
0.00213795
0.00229568
0.00236078
0.00250719
0.0024864
0.00248442
0.00243079
0.00242413
0.00242902
0.00243384
0.0025578
0.00255252
0.00254597
0.00254372
0.00256794
0.00261164
0.00260376
0.00260134
0.00259995
0.00259838
0.00247607
0.00247751
0.00247781
0.002478
0.00250989
0.00258171
0.00255724
0.00255541
0.00255346
0.00255135
0.00250054
0.00249153
0.00247893
0.00246561
0.00247185
0.00229421
0.00226014
0.00225095
0.00224343
0.00223632
0.00237419
0.00236436
0.00235212
0.00233942
0.00234346
0.00220662
0.00212726
0.00212595
0.00212994
0.00212976
0.00212854
0.00214995
0.0021468
0.00214314
0.00215017
0.00221575
0.00221493
0.00221779
0.00222043
0.00213214
0.00213299
0.00213414
0.00213397
0.00213593
0.00224149
0.00225227
0.00215928
0.00216769
0.00221781
0.00205738
0.00207434
0.0021834
0.00224514
0.00228233
0.00216125
0.00207861
0.0021303
0.00193532
0.00195304
0.00208539
0.00224482
0.00217473
0.00209082
0.00217142
0.00226862
0.00245048
0.00255811
0.00262797
0.00262406
0.00258059
0.00256686
0.00256852
0.00257236
0.00257548
0.0026802
0.00268404
0.00269004
0.00269742
0.00270161
0.00278384
0.00278154
0.00277649
0.00277146
0.00276781
0.00259716
0.00259095
0.00258374
0.00258298
0.00262214
0.00268193
0.00269518
0.00269995
0.00269991
0.0026987
0.00274913
0.00274875
0.00274876
0.00274842
0.00274533
0.0026359
0.0025978
0.00259884
0.00260719
0.00261356
0.00271116
0.00271284
0.00271369
0.0027083
0.00269258
0.00253824
0.0025355
0.00253983
0.00254353
0.00254547
0.00231009
0.00230677
0.00230206
0.00229614
0.00228984
0.00217911
0.002136
0.00214579
0.00214941
0.0021479
0.00214451
0.00218343
0.0021805
0.0021763
0.00217357
0.00222761
0.00222959
0.00223502
0.00224262
0.00215593
0.00215365
0.00214824
0.00213855
0.00212364
0.002223
0.00235742
0.00237856
0.00238791
0.00239654
0.00240367
0.00242066
0.00241253
0.00240578
0.00240085
0.00237847
0.00221802
0.00213253
0.00214945
0.00215605
0.00216128
0.00216766
0.00226137
0.00224775
0.00223246
0.00222315
0.00224636
0.00226131
0.00227226
0.00227947
0.00221039
0.0021994
0.00218852
0.00217099
0.00210886
0.00221344
0.00236229
0.00219826
0.00205166
0.00208181
0.00247623
0.0022608
0.00210565
0.00220426
0.00234245
0.00218241
0.00208465
0.0021491
0.00218478
0.0020565
0.0020325
0.00214582
0.00246774
0.00218851
0.0019959
0.00208288
0.00192727
0.00193111
0.00186608
0.00180918
0.00169243
0.00182933
0.00183753
0.00166828
0.00179065
0.00189768
0.00193625
0.00186409
0.00194928
0.0019858
0.00197794
0.00190148
0.00208426
0.00224025
0.0024097
0.00247786
0.00254563
0.00248364
0.0024681
0.0024627
0.00246057
0.00251435
0.00251721
0.00252362
0.00253618
0.00255029
0.0026264
0.00261849
0.00260876
0.00260226
0.00259808
0.00250071
0.00249902
0.00249687
0.002496
0.00250485
0.00260025
0.00257566
0.00256487
0.00255943
0.00255677
0.0026507
0.00265329
0.00265681
0.00266215
0.00267274
0.002765
0.00276006
0.0027589
0.00275924
0.00275849
0.00267665
0.00267303
0.00266629
0.00266099
0.00267028
0.0027816
0.00278582
0.00279534
0.00280347
0.00280896
0.00287486
0.00287618
0.00287785
0.00287678
0.00286373
0.00282649
0.00283602
0.00283856
0.00283799
0.00283668
0.00295934
0.00295889
0.00295688
0.00294949
0.00292931
0.00289922
0.00294141
0.00295394
0.00295673
0.00295705
0.00266756
0.00265827
0.00264657
0.0026409
0.00265576
0.00265437
0.00269227
0.0027047
0.00270694
0.00270673
0.00252332
0.00252601
0.00252599
0.0025208
0.00250025
0.00269015
0.00275665
0.00277318
0.00277098
0.00276478
0.00230855
0.00229491
0.00228021
0.00227132
0.00224405
0.00226904
0.00228655
0.00230193
0.00230403
0.00228662
0.00226807
0.00224583
0.00218728
0.00232201
0.00235448
0.00236811
0.00238543
0.00240046
0.00258942
0.00258809
0.002582
0.00256946
0.00253087
0.00259754
0.0027111
0.00273423
0.00274482
0.00275532
0.00244988
0.00242596
0.00240061
0.0023827
0.00223467
0.00225763
0.00228168
0.00230615
0.00237045
0.00234124
0.00231015
0.00227067
0.00237697
0.00240858
0.00243516
0.00245757
0.00293022
0.00293237
0.00293055
0.00290013
0.00276942
0.00228871
0.00216806
0.00227672
0.00244577
0.00257855
0.0023121
0.00214654
0.00232313
0.00227167
0.00217634
0.00216245
0.00232588
0.00226203
0.00209988
0.00224931
0.00257526
0.00226915
0.0020905
0.002014
0.00211813
0.00182601
0.00185688
0.00180739
0.00169133
0.00160644
0.00178788
0.00179901
0.00167591
0.00186865
0.00188484
0.00197317
0.00206622
0.00228399
0.00226754
0.00240298
0.00250456
0.00259505
0.00264227
0.00264363
0.00260422
0.00252543
0.0023756
0.00224896
0.00227395
0.00228976
0.00229837
0.00230236
0.00263151
0.00262924
0.00262953
0.00263859
0.00265102
0.00254703
0.00253631
0.00254765
0.00255921
0.00256701
0.00275755
0.0027576
0.00275883
0.00275936
0.00274418
0.00277517
0.00283573
0.00284129
0.00283948
0.00283864
0.0027546
0.00274851
0.00273979
0.002728
0.00269271
0.00286673
0.00289376
0.00289798
0.00289793
0.00289774
0.00303475
0.00303375
0.00303365
0.00302885
0.00297826
0.00288781
0.00292595
0.00294056
0.00295201
0.00295958
0.00306161
0.00306019
0.00305755
0.00304879
0.00300771
0.00289884
0.00291622
0.00292979
0.00294152
0.00294923
0.00313885
0.00313578
0.00313386
0.00312943
0.00308845
0.0030733
0.00308402
0.00308777
0.00309269
0.00309675
0.00299203
0.00298104
0.00296595
0.00295139
0.00292784
0.0029543
0.00301446
0.00302843
0.00302829
0.00302423
0.00263323
0.00261839
0.00260131
0.00259547
0.00263127
0.00277789
0.00280034
0.00280792
0.0028167
0.00282392
0.00298665
0.00298811
0.00298633
0.00296781
0.00290321
0.00317112
0.00319812
0.00320835
0.0032249
0.00323887
0.00308178
0.00307231
0.00305969
0.0030466
0.00300835
0.00270239
0.00278598
0.00281997
0.00284547
0.00286326
0.00287159
0.00285675
0.00283994
0.0028131
0.00269551
0.00243295
0.00224807
0.00229924
0.00232703
0.00235509
0.00238623
0.00256124
0.00253471
0.00250562
0.00248627
0.00250921
0.0025338
0.00256324
0.00258736
0.00248373
0.00244973
0.0024155
0.00237748
0.00230628
0.00246706
0.00244996
0.00229624
0.00218932
0.00234297
0.00243805
0.00222641
0.00219383
0.00236415
0.00213705
0.00207928
0.00220257
0.00237764
0.0023713
0.00218738
0.002108
0.00225647
0.00250035
0.00225376
0.00225714
0.00245877
0.00234691
0.00214985
0.00200171
0.00207168
0.00197792
0.00194657
0.00212146
0.0022056
0.0025588
0.00278043
0.00282693
0.0028528
0.00283458
0.00278431
0.00269218
0.00256305
0.0023964
0.00221681
0.00198871
0.00180792
0.0017205
0.00178355
0.00179606
0.00179664
0.00179519
0.00213243
0.00212985
0.00212984
0.00213422
0.00211263
0.00224059
0.00228297
0.00230446
0.00231526
0.00231996
0.00261902
0.00261479
0.00261231
0.00261278
0.00258661
0.00270006
0.00271328
0.00271475
0.00271719
0.00271939
0.00274725
0.00274086
0.00273307
0.00272515
0.00269182
0.00289783
0.00292083
0.00292631
0.00293177
0.00293637
0.00298031
0.00297196
0.00296175
0.00295035
0.00291543
0.0030987
0.00313457
0.00314734
0.00315695
0.00316385
0.00319198
0.00318338
0.00317
0.00315077
0.00310499
0.00315293
0.00319695
0.00321356
0.00322214
0.00322653
0.003296
0.00329531
0.00329189
0.00327469
0.00319631
0.00332818
0.00337451
0.00339295
0.00340223
0.00340842
0.00334807
0.0033428
0.00333311
0.00331098
0.00325698
0.00297951
0.00302196
0.0030454
0.00306674
0.00308274
0.00320957
0.00320277
0.00319494
0.0031877
0.00317395
0.00304899
0.00317089
0.00326123
0.00326111
0.00340805
0.00346908
0.00347988
0.00348384
0.00348845
0.00334061
0.00332964
0.0033132
0.00329302
0.00325976
0.00351802
0.0035638
0.00357214
0.00358066
0.00358911
0.00356656
0.00355958
0.00355099
0.00353703
0.00347626
0.00340118
0.00346803
0.00348565
0.00349893
0.00350928
0.00322979
0.0032116
0.00318806
0.00316429
0.00310487
0.00302563
0.0031242
0.00315381
0.00316708
0.00317468
0.00297263
0.00296518
0.00295322
0.00292104
0.00281921
0.00237975
0.00224192
0.00232872
0.00237413
0.00241297
0.00245242
0.00254093
0.00251747
0.00248595
0.00245439
0.00248297
0.00250395
0.0025322
0.00255454
0.00254327
0.00251961
0.00249237
0.00245518
0.00236726
0.00245681
0.00243926
0.00232719
0.0023769
0.00249855
0.00264081
0.00296628
0.00298725
0.00294154
0.00299572
0.00302083
0.00303666
0.00304796
0.00294688
0.00293507
0.00291951
0.00290567
0.00287768
0.0027058
0.00278359
0.00280383
0.00280768
0.00280905
0.00263462
0.00262257
0.00260886
0.00259291
0.00255795
0.00238963
0.00219478
0.00220478
0.00221895
0.00223411
0.00225163
0.00242994
0.00241912
0.00240637
0.00239716
0.00245271
0.00246513
0.00248214
0.00249643
0.00241124
0.00239512
0.00237798
0.00235321
0.00229336
0.00241721
0.00231687
0.00224253
0.00217499
0.00229807
0.00232395
0.00217726
0.00211861
0.00227073
0.00239597
0.00217156
0.00218197
0.00242796
0.00209369
0.00207414
0.00209142
0.00221367
0.00251942
0.00229916
0.00228473
0.00255295
0.00240943
0.00218488
0.00201911
0.00211925
0.0017974
0.00186348
0.00174473
0.00143607
0.00152354
0.00173328
0.00182881
0.00166724
0.0018501
0.00185639
0.00171839
0.00150006
0.00136002
0.00172032
0.001692
0.0012662
0.00113105
0.00167844
0.00168761
0.00126804
0.00126174
0.00168321
0.00172986
0.00144565
0.00139851
0.00172297
0.0017311
0.00138822
0.00160066
0.001829
0.00185293
0.0015486
0.00160522
0.00185451
0.00178431
0.001474
0.00144214
0.00177059
0.0018743
0.00173753
0.0016673
0.00186505
0.00193672
0.001734
0.0016935
0.0018817
0.00189769
0.00200616
0.00192958
0.0019193
0.00192096
0.00192088
0.00205475
0.00205293
0.00205018
0.00205627
0.00210881
0.00254874
0.0024503
0.00242081
0.00240296
0.00239131
0.00205306
0.00204878
0.00204518
0.00206088
0.00217083
0.00240637
0.00237259
0.00234841
0.00233207
0.00232244
0.00219911
0.00218694
0.00217262
0.00217005
0.00222887
0.00209993
0.00201046
0.00194815
0.00206092
0.00199053
0.00197961
0.00198053
0.00198023
0.00222232
0.00222364
0.00222384
0.00222688
0.00227316
0.00255804
0.00249226
0.00246841
0.00245839
0.00245364
0.00222544
0.00222125
0.00221728
0.00222848
0.00231065
0.00249582
0.00247928
0.00246221
0.00245103
0.00244446
0.00227798
0.00227349
0.00226875
0.00227882
0.00237088
0.00228669
0.00226306
0.00225198
0.00233529
0.00235686
0.00228892
0.00227565
0.00227622
0.00227854
0.0024578
0.00246344
0.00247373
0.00249153
0.00250976
0.00254429
0.00252023
0.00250507
0.00249682
0.00249241
0.00236906
0.00236644
0.00236385
0.00237069
0.0024163
0.00245264
0.00239884
0.00239267
0.00239474
0.00239653
0.00241301
0.00253969
0.00252122
0.00253995
0.00245222
0.0024714
0.00241621
0.0024092
0.00241368
0.00241821
0.00259773
0.00260069
0.00260882
0.00262433
0.0026397
0.00268077
0.00266484
0.00265476
0.0026509
0.00264966
0.00250788
0.00250294
0.00249577
0.00249193
0.00251589
0.00265992
0.00263351
0.00262022
0.0026155
0.00261414
0.00230296
0.00229821
0.00228941
0.00227696
0.00226212
0.00230797
0.00231905
0.00231458
0.00231289
0.00231265
0.00218641
0.00218543
0.00218506
0.0021883
0.00217632
0.00197316
0.0020096
0.00200699
0.00200782
0.00201148
0.00194386
0.00195252
0.00196365
0.00196334
0.00189508
0.00153596
0.00151569
0.00150994
0.00150913
0.00150919
0.00147459
0.00147401
0.00147581
0.00148055
0.00149135
0.00167218
0.00168743
0.00169901
0.00170075
0.00169701
0.00199457
0.00199212
0.00199175
0.00199712
0.00199388
0.00221264
0.0022152
0.00221547
0.0022194
0.00222389
0.0024958
0.0024921
0.0024834
0.00246311
0.00239997
0.00277323
0.00284214
0.00284567
0.00283898
0.00283535
0.00274617
0.00274374
0.00273495
0.00271389
0.00266939
0.00300018
0.00304494
0.00304698
0.00304463
0.00304554
0.00334774
0.00334563
0.00334395
0.00333329
0.00325878
0.00316801
0.00322159
0.00324343
0.00325736
0.00326494
0.0033362
0.00332592
0.00331282
0.00330113
0.0032862
0.00347785
0.00354424
0.00355396
0.00355579
0.00355812
0.00358594
0.00357981
0.00357295
0.00356364
0.0035091
0.00336874
0.00344694
0.00347141
0.0034884
0.00350047
0.00347359
0.00346621
0.00345477
0.00343353
0.00336489
0.00328566
0.00335772
0.00338145
0.00339651
0.00340718
0.00350679
0.00350145
0.00349508
0.00348174
0.0034232
0.00318484
0.00324755
0.00326308
0.00327177
0.00327723
0.00310393
0.00309841
0.00309108
0.00308022
0.00305166
0.00285083
0.00287828
0.0028884
0.00289536
0.00289977
0.00262688
0.00262511
0.00262247
0.00261751
0.00260485
0.00239106
0.00237706
0.00238226
0.00238902
0.00239378
0.00242691
0.00242958
0.00243357
0.00243251
0.00242868
0.00223078
0.00208768
0.00207678
0.00207763
0.00207984
0.00208249
0.00223649
0.00223972
0.00224208
0.00223733
0.00226057
0.00227056
0.00227689
0.00228156
0.00213299
0.00212087
0.00210941
0.00210153
0.00210304
0.00224643
0.00226645
0.00212208
0.00213213
0.00228496
0.00240933
0.00214443
0.00209518
0.00222761
0.00210553
0.00206727
0.00207399
0.00210418
0.00205603
0.00203732
0.00203334
0.00206486
0.00211728
0.0020735
0.00217764
0.00229851
0.00219896
0.00209085
0.00204384
0.00198349
0.00231429
0.00217782
0.00212523
0.00230346
0.00207404
0.00242465
0.00269188
0.00291036
0.00305115
0.00308261
0.00298636
0.00277021
0.00245572
0.00210412
0.00176972
0.00149173
0.0012874
0.00114902
0.00107403
0.00118398
0.00116399
0.00115718
0.00115483
0.00115335
0.00127403
0.00128157
0.00128793
0.001291
0.00128902
0.00152742
0.00152238
0.00150971
0.00149676
0.00148734
0.0014961
0.00150556
0.00151452
0.00151654
0.00151463
0.00169129
0.00164807
0.00164115
0.00164529
0.00165011
0.00192622
0.00193261
0.00193645
0.00192798
0.00191067
0.00217655
0.00218822
0.00218981
0.00219469
0.0021984
0.00248796
0.00248166
0.00247465
0.00247151
0.00246934
0.00255706
0.00259651
0.00259629
0.00259087
0.00258655
0.00260323
0.00260677
0.00260625
0.00259253
0.00255625
0.0027557
0.00275477
0.00276039
0.00277413
0.00278577
0.00309002
0.00308315
0.00307583
0.00306633
0.00302903
0.00313284
0.00318699
0.00319476
0.00319445
0.00319458
0.00313813
0.00313429
0.00312654
0.00311166
0.0030845
0.00321775
0.00323668
0.00324481
0.00325759
0.00326896
0.00340746
0.00339874
0.00338655
0.00337074
0.00331912
0.00337296
0.00342788
0.00343635
0.00343695
0.0034366
0.00341672
0.00341402
0.00340991
0.00340409
0.00335775
0.00319019
0.00321031
0.00321965
0.00322937
0.00323677
0.00325009
0.00324233
0.00323288
0.00322258
0.00319433
0.00325382
0.00327565
0.00327661
0.00327533
0.00327468
0.00306878
0.00306929
0.00306948
0.00306852
0.00306646
0.00285702
0.00285833
0.00285938
0.00286132
0.00286302
0.00267613
0.00267492
0.0026741
0.00267186
0.00265545
0.00235683
0.00236549
0.0023749
0.0023846
0.00239124
0.00242576
0.00241951
0.00241141
0.00240154
0.00238104
0.00237435
0.00237116
0.00236837
0.00236344
0.00235949
0.00215149
0.00215918
0.00216557
0.00216229
0.00202968
0.00203023
0.00203233
0.00203447
0.00201771
0.00201732
0.00201614
0.00201672
0.00211114
0.00211198
0.00210491
0.00209692
0.002388
0.00239282
0.00239966
0.0024007
0.00238785
0.00211535
0.00204088
0.00210007
0.0021726
0.00211348
0.00206325
0.00205252
0.00204603
0.00199563
0.00203755
0.00203737
0.00203502
0.00202898
0.00202447
0.00197991
0.00197895
0.00197646
0.00197606
0.00211515
0.00211442
0.00210545
0.00209849
0.00198733
0.00198719
0.00198532
0.00198003
0.00199062
0.00218381
0.00210885
0.00209524
0.00208518
0.00207847
0.00206595
0.0020686
0.00207301
0.00208135
0.0021943
0.00196401
0.00199678
0.00197068
0.00196744
0.00196616
0.00196353
0.00198366
0.00199145
0.00199941
0.00199864
0.00201029
0.00201697
0.00201558
0.00201429
0.00198174
0.00198456
0.00198737
0.00198836
0.00198569
0.00195273
0.00196791
0.00201934
0.00204194
0.00207156
0.00195506
0.00198379
0.00197936
0.00193259
0.00209755
0.00201619
0.00202807
0.00209686
0.00209932
0.00202788
0.00206701
0.00212667
0.00204639
0.00214033
0.00227174
0.00235741
0.00247014
0.00256534
0.00263936
0.0026685
0.00262656
0.00248543
0.00227157
0.00202655
0.0017479
0.00151125
0.00133162
0.00119312
0.00124132
0.0012457
0.00124154
0.00123322
0.00122606
0.00113877
0.0011381
0.00113781
0.00114338
0.00118109
0.00134766
0.00136103
0.00135754
0.00134563
0.00133356
0.00137004
0.00137037
0.00137126
0.00137576
0.00139386
0.001616
0.00157629
0.00156773
0.00156576
0.00156504
0.00183505
0.00184436
0.00185167
0.00184775
0.00182789
0.00199579
0.00196021
0.00195671
0.00196498
0.00197354
0.00235145
0.00234961
0.00234756
0.00234785
0.00234475
0.00241596
0.00242812
0.00242565
0.00242113
0.00241897
0.00248686
0.00249187
0.00249372
0.00248531
0.00246556
0.00266767
0.00264869
0.00265091
0.00266291
0.00267473
0.00296212
0.00295823
0.00295263
0.00294929
0.00294771
0.00296885
0.00298727
0.0029914
0.00299052
0.00298931
0.00296768
0.00296712
0.00296431
0.00295766
0.00295792
0.00310612
0.00309175
0.00309204
0.00310116
0.00311072
0.00321184
0.00320467
0.00319723
0.00319521
0.00319365
0.00323041
0.00322861
0.0032323
0.00324047
0.00324757
0.00317595
0.00317962
0.0031826
0.00318116
0.00317371
0.0030886
0.0030864
0.00308839
0.00308713
0.00308527
0.00296514
0.00296609
0.0029666
0.00296662
0.00297296
0.00280113
0.00279926
0.00279899
0.00279914
0.00279985
0.00263068
0.00263097
0.00263242
0.00263417
0.00262511
0.00257943
0.00258931
0.00258849
0.00258661
0.002586
0.00236319
0.0023576
0.00234913
0.00233999
0.00233181
0.00226028
0.00224946
0.00225175
0.00225763
0.00226208
0.00228859
0.00229658
0.00230792
0.00231689
0.00232152
0.00209084
0.00210558
0.0021033
0.00209554
0.00208738
0.00205151
0.00205233
0.0020514
0.00205044
0.00207267
0.00204934
0.0020266
0.0020208
0.00201716
0.00201502
0.00207686
0.00197413
0.00219204
0.00220457
0.00194101
0.00230427
0.00208642
0.00196424
0.00241308
0.00214494
0.00195144
0.00251608
0.00199136
0.00227975
0.0020888
0.0024718
0.00221645
0.00233501
0.00233207
0.00234403
0.00228777
0.00225923
0.00221662
0.00216129
0.00206352
0.00191702
0.00171124
0.00151012
0.00135192
0.00123205
0.00113088
0.00113299
0.00111397
0.00110804
0.00110337
0.00109958
0.00112585
0.00113777
0.00115039
0.00115884
0.00116604
0.00132486
0.00127986
0.00126557
0.00126473
0.00126723
0.00147959
0.00148336
0.00149109
0.00150849
0.0015513
0.00166767
0.00166884
0.00166871
0.00165901
0.00164811
0.00189
0.00188263
0.00187794
0.00189176
0.00195144
0.00225268
0.00221202
0.00220078
0.0022
0.00220154
0.00234076
0.00234784
0.00235296
0.00235029
0.00235345
0.00262307
0.00258124
0.00257588
0.00258521
0.00259533
0.0028441
0.00284023
0.00283813
0.00284493
0.00287905
0.00274346
0.00272408
0.00272211
0.00272122
0.00272028
0.00288076
0.00288101
0.00288201
0.00288366
0.00289299
0.00297794
0.00296758
0.00296555
0.0029646
0.00296417
0.00300619
0.00300658
0.00300878
0.00300988
0.00301108
0.00296135
0.00295625
0.00295616
0.00295461
0.00295461
0.0028969
0.00290157
0.00290754
0.0029107
0.00291247
0.0027322
0.00272396
0.00272275
0.0027231
0.00272466
0.00257256
0.00257256
0.00257367
0.00257829
0.0025986
0.00250408
0.00251753
0.00251955
0.00252102
0.00252263
0.00243994
0.00244073
0.00244275
0.0024451
0.00243686
0.00223864
0.00221064
0.00220695
0.00221073
0.00221423
0.00229908
0.00231116
0.0023274
0.00233704
0.00231643
0.00221992
0.00216544
0.00216148
0.00216666
0.00217071
0.00210795
0.00210586
0.00210178
0.00210309
0.00214279
0.00202253
0.00197944
0.00197185
0.00197055
0.00196921
0.00202622
0.00203509
0.00204739
0.00205798
0.00206606
0.00191245
0.00195589
0.00194998
0.00193743
0.00192704
0.00196417
0.0019741
0.00198959
0.00200081
0.00195945
0.00186382
0.00185085
0.00185154
0.00185124
0.00184997
0.00199013
0.00199752
0.00200476
0.00200537
0.00199164
0.00199563
0.00194018
0.00189883
0.00200769
0.00200627
0.00190269
0.00190756
0.0019064
0.0019021
0.00189751
0.00196824
0.00197394
0.00197932
0.001985
0.00202036
0.0019618
0.00191252
0.00197985
0.00195161
0.00187837
0.0019766
0.00198208
0.00199231
0.00198407
0.00205293
0.00203356
0.00198018
0.00201415
0.00224651
0.00209561
0.00204957
0.00220856
0.00219159
0.00203836
0.00203855
0.00206028
0.00211308
0.00205748
0.00210593
0.00221113
0.00213678
0.00208469
0.00205971
0.0020635
0.00142216
0.001779
0.00180701
0.00142156
0.00150932
0.00183562
0.00193067
0.00179987
0.00224099
0.00206306
0.00183219
0.00175938
0.00151336
0.00180146
0.00173016
0.00133355
0.0013478
0.00174609
0.00168221
0.00113598
0.00115556
0.00166826
0.00162453
0.00106045
0.0011688
0.00167051
0.00163944
0.00112661
0.000954174
0.00157741
0.00163441
0.00105045
0.00113429
0.00166427
0.00162637
0.000957597
0.00131141
0.00175299
0.00180658
0.00143982
0.00170721
0.00187573
0.00193744
0.0019085
0.00239274
0.0021311
0.00192082
0.00178897
0.00180018
0.00151037
0.00106749
0.000636334
0.000359466
0.000349077
0.000678574
0.00109397
0.00171187
0.00212225
0.00241002
0.00261882
0.00265657
0.00267313
0.00268412
0.00299886
0.00301131
0.00302483
0.00303138
0.00299658
0.00242722
0.00252186
0.00253355
0.0025314
0.00252612
0.00303773
0.00305883
0.00308445
0.0030898
0.0030154
0.00240978
0.00242738
0.00242792
0.00242864
0.0024278
0.00304877
0.00307326
0.0031077
0.00313157
0.00305154
0.0029287
0.00309157
0.00311122
0.00310249
0.00309151
0.00235092
0.00235437
0.00235351
0.00233805
0.00224561
0.00189612
0.00204044
0.00205046
0.00204979
0.00204851
0.00252092
0.00253146
0.00254349
0.00255352
0.00258386
0.0019936
0.00198262
0.00198272
0.00198363
0.00198102
0.00192538
0.00192671
0.00192824
0.00193036
0.00190996
0.00250013
0.00241344
0.00238423
0.00236748
0.00235577
0.00236904
0.00238466
0.00240992
0.00244361
0.00245856
0.00246663
0.00236363
0.00233805
0.00232737
0.00232097
0.00236194
0.00237176
0.00238917
0.00241761
0.00246684
0.00233793
0.00225555
0.00224303
0.00224645
0.00225039
0.00214803
0.00209005
0.00208081
0.00208106
0.00208051
0.0022384
0.00223748
0.00223526
0.00223823
0.00227541
0.00252356
0.00249319
0.0024709
0.00245716
0.00244987
0.00242785
0.00243027
0.0024367
0.00245892
0.00254348
0.00240461
0.00238653
0.00238599
0.00238761
0.00238861
0.00243308
0.00243268
0.00243033
0.00242879
0.00244708
0.00241031
0.00235167
0.00236686
0.00227505
0.00228068
0.00225132
0.00225155
0.00225658
0.00226012
0.00248194
0.00248708
0.00249614
0.00251323
0.00253306
0.00262443
0.00259551
0.00257713
0.00256811
0.00256431
0.00231962
0.00231641
0.00231086
0.00230382
0.00229821
0.00238507
0.00237559
0.00236673
0.00236185
0.00235922
0.00234947
0.00235298
0.00236263
0.00237964
0.00237313
0.0021604
0.00218967
0.00218235
0.00217917
0.00218061
0.00177759
0.00177431
0.00176431
0.00174213
0.00169153
0.00159456
0.0016407
0.00166026
0.00166989
0.00167276
0.00153522
0.00153781
0.00154301
0.00154941
0.00152953
0.0014177
0.00143362
0.00142898
0.00142416
0.00142188
0.0013312
0.00134199
0.00135604
0.00136775
0.00136547
0.00116998
0.00118847
0.0011944
0.00119429
0.00119133
0.00111074
0.00111197
0.00111389
0.00111721
0.00112009
0.00110742
0.00109005
0.00108186
0.00107745
0.00107503
0.00108784
0.00109064
0.00109572
0.0011036
0.00111554
0.00116014
0.0011585
0.00115328
0.00114468
0.0011367
0.00116635
0.00116907
0.00117314
0.0011808
0.00120115
0.00135273
0.00131925
0.00131003
0.00130842
0.00130779
0.00124991
0.00114288
0.00124023
0.00121543
0.00120364
0.00119723
0.00119379
0.00113304
0.00109161
0.00109454
0.00110614
0.00110643
0.00110264
0.00109854
0.00106643
0.00106616
0.00106649
0.00107072
0.00109483
0.00112528
0.00109443
0.00108724
0.0010859
0.00108608
0.00113101
0.00113005
0.0011288
0.0011295
0.00114852
0.00112389
0.00111105
0.00111105
0.00111288
0.001114
0.00114988
0.00115004
0.00115152
0.00115895
0.00118559
0.00136449
0.00137317
0.00136786
0.00135547
0.00134437
0.00133007
0.00132528
0.00132064
0.00132433
0.00136051
0.00160463
0.00158163
0.00157367
0.00157073
0.00156942
0.00182413
0.0018333
0.00184091
0.00183516
0.00180547
0.00195564
0.0019089
0.00190451
0.00191392
0.0019219
0.00229669
0.00229437
0.00229344
0.00229368
0.00230736
0.0022992
0.00229785
0.00229802