/*--------------------------------*- C++ -*----------------------------------*\
  =========                 |
  \\      /  F ield         | OpenFOAM: The Open Source CFD Toolbox
   \\    /   O peration     | Website:  https://openfoam.org
    \\  /    A nd           | Version:  7
     \\/     M anipulation  |
\*---------------------------------------------------------------------------*/
FoamFile
{
    version     2.0;
    format      ascii;
    class       volVectorField;
    location    "1";
    object      wallShearStress;
}
// * * * * * * * * * * * * * * * * * * * * * * * * * * * * * * * * * * * * * //

dimensions      [0 2 -2 0 0 0 0];

internalField   uniform (0 0 0);

boundaryField
{
    outlet1
    {
        type            calculated;
        value           uniform (0 0 0);
    }
    Wall
    {
        type            calculated;
        value           nonuniform List<vector> 
40276
(
(0.000125926 6.72865e-05 0.000277701)
(-0.000190214 -7.32857e-06 0.000424934)
(-0.000193668 -6.6184e-06 0.0004164)
(0.000227747 -0.000212566 0.000200034)
(0.000181783 -0.000146395 0.000189279)
(0.000139706 -0.000101987 0.000198858)
(0.000121125 -5.49192e-05 0.000201937)
(0.000146537 -2.79945e-05 0.000222216)
(0.000119827 -8.5995e-06 0.000209893)
(0.000121086 -2.66675e-05 0.000221236)
(0.000507971 3.72435e-05 0.000441003)
(0.000590393 1.91e-06 0.000479735)
(0.000558953 2.16404e-05 0.000896511)
(0.000537767 2.69281e-05 0.000830835)
(0.000198123 4.38245e-05 0.000271055)
(0.000197471 5.54081e-05 0.000301533)
(0.000129206 5.67987e-05 0.00020326)
(0.000138462 3.91025e-05 0.000143562)
(6.92072e-05 -0.000178324 0.00011625)
(9.06089e-05 -0.000237941 0.000153622)
(-5.00109e-05 1.39216e-05 0.0001627)
(-7.132e-05 1.68622e-05 0.000156202)
(-6.99298e-05 1.95999e-05 5.40844e-05)
(-8.34636e-05 1.85368e-05 5.10033e-05)
(-6.71123e-05 1.607e-05 3.55675e-05)
(-7.76183e-05 1.72109e-05 3.08123e-05)
(5.55576e-06 1.57943e-05 -2.66233e-05)
(-7.87026e-06 2.31629e-05 -2.82708e-05)
(-0.00014908 4.77331e-05 7.96586e-05)
(-0.000102069 3.07071e-05 6.8487e-05)
(-0.000231861 7.53937e-05 0.00014962)
(-0.000279891 9.65471e-05 0.000158606)
(-5.28782e-05 -3.19974e-06 0.000160601)
(-4.71057e-05 -4.91668e-06 0.000149315)
(-1.2928e-05 7.59337e-06 1.6225e-06)
(-1.28206e-05 8.04258e-06 1.69743e-06)
(0.000531241 3.13784e-05 3.52698e-05)
(0.000539731 8.67864e-07 1.2555e-05)
(0.00118076 0.000263576 1.80743e-05)
(0.00145696 0.000393889 4.54494e-06)
(0.000810075 2.49494e-05 -8.02006e-06)
(0.000690038 -2.73064e-06 1.57001e-05)
(0.000223669 -2.65893e-05 -0.000708651)
(0.000236665 -2.81553e-05 -0.000714575)
(0.000207041 6.07073e-06 -0.000694869)
(0.000166015 -1.54993e-05 -0.000646927)
(0.000115786 8.59877e-06 -0.000657335)
(0.000104989 -8.34785e-06 -0.000585192)
(4.84197e-05 -1.40753e-06 -0.000553332)
(1.38146e-05 3.8748e-06 -0.000504339)
(7.40142e-06 -9.83569e-06 -0.000457707)
(-2.47055e-05 5.70566e-06 -0.000475203)
(-3.63225e-05 -5.79951e-06 -0.000418342)
(-5.46122e-05 8.96424e-06 -0.000420223)
(0.000482324 7.68559e-05 0.000230018)
(0.000483409 8.7945e-05 0.00018188)
(-0.000183049 6.87243e-05 0.000237751)
(6.16153e-05 2.07857e-05 0.000183743)
(-0.000203691 7.21777e-05 0.000240124)
(-0.000626696 0.00015379 -0.000592967)
(-0.000687389 0.000103302 -0.000631907)
(1.8303e-05 3.29353e-05 0.000281293)
(-1.24853e-05 -1.18065e-05 0.00021814)
(1.42437e-05 -2.10526e-07 1.25624e-05)
(1.83781e-05 -3.82248e-07 1.51789e-05)
(1.94856e-05 -9.84754e-08 1.46319e-05)
(1.85679e-05 -2.44435e-07 1.4086e-05)
(1.33307e-05 -1.29367e-07 1.17129e-05)
(-0.00020117 -6.04746e-06 -0.000184312)
(-0.000218399 1.17644e-05 -0.00019737)
(-7.39171e-05 1.20455e-05 -0.000384102)
(-5.57445e-05 -5.8714e-06 -0.000395058)
(-8.63942e-05 6.48804e-06 -8.58991e-05)
(-8.76567e-05 6.54252e-06 -8.11142e-05)
(-7.6671e-05 5.6882e-06 -7.33161e-05)
(-7.72037e-05 8.31631e-06 -7.17785e-05)
(-8.56893e-05 4.12877e-06 -7.71781e-05)
(9.01367e-06 6.59743e-07 -2.43262e-05)
(5.0054e-06 2.34625e-07 -2.91112e-05)
(1.28292e-05 1.40709e-06 -1.58138e-06)
(1.47795e-05 -1.86724e-07 -1.02851e-06)
(1.63593e-05 1.5827e-07 -1.12993e-06)
(1.42166e-05 -7.11804e-06 9.854e-06)
(1.46571e-05 -9.92568e-06 1.10429e-05)
(1.90852e-05 -4.48774e-05 1.19305e-05)
(2.08755e-05 -5.86112e-08 1.51082e-05)
(2.0081e-05 -3.8811e-07 1.40653e-05)
(2.026e-05 -2.12534e-07 1.45967e-05)
(1.69299e-05 -4.78696e-05 1.11279e-05)
(1.70212e-06 -6.24865e-05 4.26493e-06)
(-2.9444e-07 -6.06251e-05 3.55397e-06)
(-5.23761e-05 1.1659e-06 -4.78989e-05)
(1.974e-05 -3.0964e-07 1.35004e-05)
(1.8385e-05 -1.72734e-07 1.39309e-05)
(1.82661e-05 -2.99042e-07 1.29367e-05)
(1.57255e-05 -8.96035e-08 1.20584e-05)
(1.29359e-05 -8.10027e-08 1.14575e-05)
(1.01966e-05 -6.96785e-08 1.1194e-05)
(4.45006e-06 1.66836e-07 9.33632e-06)
(1.91323e-06 1.00858e-07 9.04489e-06)
(-4.72481e-07 -8.38142e-09 8.8337e-06)
(-7.86281e-06 3.59084e-07 5.71368e-06)
(-9.15923e-06 1.80216e-07 4.98016e-06)
(-5.74605e-05 8.07751e-06 -5.09571e-05)
(-1.02951e-05 9.14431e-08 4.15143e-06)
(-4.09116e-06 -3.33776e-06 -5.10807e-06)
(-2.65473e-06 -4.20528e-06 -3.27924e-06)
(-1.0907e-05 -1.0337e-07 3.19067e-06)
(-1.12705e-05 -2.40219e-07 2.08523e-06)
(-1.01038e-05 4.17283e-07 1.12173e-06)
(-1.11465e-05 -3.68317e-07 9.48433e-07)
(-9.70584e-06 3.15249e-07 1.53767e-08)
(-1.03971e-05 -4.84337e-07 -2.43146e-07)
(-9.15639e-06 2.38628e-07 -8.54406e-07)
(-8.73849e-06 -2.90801e-07 -1.45939e-06)
(-7.88133e-06 -1.49461e-06 -1.73721e-05)
(-7.67378e-06 -1.72434e-06 -1.85441e-05)
(-7.75534e-06 -2.00361e-06 -1.72194e-05)
(-0.000281117 -6.43471e-05 0.00049777)
(-0.000283772 -6.27206e-05 0.000451277)
(-8.58499e-06 -2.5275e-06 1.43874e-05)
(-1.7179e-05 -3.05667e-06 2.01727e-05)
(-1.37931e-05 -3.11647e-06 2.64363e-05)
(-7.22885e-06 -3.27932e-06 2.14442e-05)
(6.72535e-07 -2.83112e-05 3.35754e-07)
(1.2139e-06 -2.60976e-05 5.86548e-07)
(-0.000128164 3.45663e-05 0.000185041)
(-0.000110408 4.50648e-05 0.000156244)
(-0.000162775 -1.45413e-05 0.000278711)
(-0.000142366 -2.05863e-05 0.000240163)
(-0.00010633 -3.47057e-06 0.000178555)
(-9.30465e-05 -6.60809e-06 0.000153717)
(-0.000164735 9.30707e-05 0.000493327)
(-0.000231171 0.000161683 0.000697488)
(1.67262e-05 -1.54462e-05 0.000195622)
(8.73215e-06 -8.38305e-06 0.000165067)
(-9.76341e-05 2.60384e-05 0.000199334)
(-5.07028e-05 -4.44042e-07 0.00017337)
(-0.000186408 -5.27731e-05 0.000505056)
(-0.000186914 -3.43507e-05 0.000504799)
(-0.000186662 -4.11195e-05 0.000537668)
(-0.000204119 -1.64752e-05 0.000540209)
(-0.000573045 3.73812e-06 -0.000154834)
(-0.000657841 4.28877e-06 -0.000187972)
(-2.27677e-05 -7.96656e-05 9.96262e-06)
(-2.65615e-05 -7.89295e-05 1.19293e-05)
(-2.18753e-05 -4.40378e-05 6.57142e-05)
(-2.56104e-05 -5.38497e-05 8.21032e-05)
(-2.93232e-05 -5.27038e-05 6.62741e-05)
(-2.35008e-05 -4.05775e-05 5.3905e-05)
(-1.54781e-05 -8.61472e-05 8.48792e-06)
(-1.9905e-05 -9.83549e-05 6.53309e-06)
(-2.3537e-05 -8.3473e-05 8.8204e-06)
(-2.19195e-05 -8.64822e-05 9.21353e-06)
(-2.31368e-05 -0.000128638 -1.56102e-05)
(-1.99752e-05 -0.000111411 -1.41257e-05)
(-7.64756e-06 -5.66233e-05 -3.31691e-06)
(-9.88343e-06 -5.05386e-05 -4.75791e-06)
(-6.07339e-05 -3.05686e-05 9.41731e-05)
(-5.55338e-05 -3.23959e-05 8.89836e-05)
(5.10092e-05 6.43308e-06 -0.000235811)
(5.11844e-05 -7.63019e-07 -0.000220929)
(-0.000139301 -6.03259e-05 -1.26957e-05)
(-0.0001383 -6.75855e-05 -1.49511e-05)
(-0.000332283 -5.20994e-05 0.000135961)
(-0.000355508 -5.68433e-05 0.000122883)
(-0.000298816 -7.48872e-05 -2.67033e-05)
(-0.000291576 -6.20125e-05 -3.60218e-05)
(-0.000157342 0.000195248 0.000214232)
(-0.00014978 0.000243027 0.000197073)
(-0.000248172 -4.61487e-05 1.31563e-05)
(-0.000129845 -4.73732e-05 -1.82909e-05)
(-0.000208361 -8.05203e-05 7.5418e-05)
(-0.00017967 -7.88207e-05 6.38013e-05)
(-0.000227328 -5.39163e-05 5.87863e-05)
(-6.63822e-05 -4.27768e-05 -7.02431e-06)
(-3.92085e-05 -2.09416e-05 6.06652e-05)
(-3.23132e-05 -1.94196e-05 5.60113e-05)
(0.000737962 -0.000351785 0.000422874)
(0.000639418 -0.000294697 0.00031709)
(0.00067201 -0.00043906 0.000187445)
(0.000560505 -0.000298306 0.00019917)
(0.00058533 -0.000367147 0.000168422)
(0.000410305 -0.000365654 0.000171279)
(0.000514183 -0.000403612 0.00020446)
(0.000402263 -0.000333497 0.000169796)
(0.000614662 -0.000346401 0.000370348)
(0.000666287 -0.000416041 0.000375968)
(0.000629725 -0.000390381 0.000283021)
(0.00054294 -0.000440982 0.000158989)
(0.000626115 -0.000452762 0.000144845)
(0.000513684 -0.000373404 0.000181785)
(0.000285144 -0.000260708 0.000172918)
(0.000396868 -0.000360611 0.000185974)
(0.000318523 -0.000271758 0.000188217)
(0.000274324 -0.000253568 0.000192904)
(0.000148402 -0.000101458 0.000198121)
(2.93182e-05 1.75988e-06 0.000452855)
(3.84059e-07 8.62372e-06 0.000395126)
(3.43263e-05 3.39541e-05 0.000314375)
(2.84967e-05 3.58404e-05 0.000278448)
(6.69193e-05 4.72714e-05 0.000283662)
(-1.14742e-05 1.39123e-05 0.000329759)
(8.8971e-07 2.68777e-05 0.00029417)
(0.000225005 3.91786e-05 0.000363324)
(0.000261242 6.12704e-05 0.000407408)
(0.000147044 1.30823e-05 0.000231859)
(0.000178286 8.80734e-06 0.000279683)
(0.000149966 -1.06541e-05 0.000241884)
(0.000139062 3.7199e-06 0.000226618)
(0.000190828 1.7673e-05 0.00030898)
(0.000190709 2.73079e-05 0.000337455)
(0.000172344 1.17053e-05 0.000305423)
(0.000161814 -7.89481e-06 0.000284606)
(0.000135235 1.13331e-05 0.000225958)
(0.0001423 1.84252e-05 0.00021482)
(0.000132132 -9.27329e-06 0.000213173)
(0.000187206 2.42382e-05 0.000294982)
(0.00013613 7.07941e-06 0.000225856)
(0.000119378 -1.45576e-05 0.000223012)
(0.000203756 9.10212e-06 0.000500188)
(0.000197294 1.12231e-05 0.000503457)
(0.000149351 -6.30316e-06 0.000514168)
(6.37891e-05 -2.22281e-05 0.000494573)
(0.000229742 1.91483e-05 0.000467656)
(0.000157377 -1.97671e-05 0.000418705)
(0.000105776 -2.23461e-05 0.00038393)
(4.90576e-05 -3.62209e-05 0.00034739)
(5.58746e-05 -5.68076e-05 0.000341077)
(-2.43579e-05 -3.77727e-05 0.000369578)
(-4.39495e-05 -6.20376e-05 0.00033468)
(-3.97258e-05 -1.64308e-05 0.000293873)
(-3.39278e-05 8.11808e-07 0.000244586)
(-6.83202e-05 -4.47029e-05 0.000246306)
(-5.70409e-05 -1.9711e-05 0.000212637)
(0.000176391 1.12307e-05 0.000316551)
(0.00016999 5.08656e-06 0.000331405)
(0.000131615 -2.01935e-05 0.000299688)
(6.92534e-05 -5.91542e-05 0.000335204)
(0.000139454 -9.19142e-06 0.000275611)
(5.01742e-05 -5.25207e-05 0.000229121)
(2.88388e-05 -5.24989e-05 0.000274124)
(-4.39542e-05 -7.12374e-05 0.000254272)
(-5.16759e-06 -7.11354e-05 0.000210749)
(-4.54942e-05 -7.00029e-05 0.000162879)
(-3.95737e-05 -8.05626e-05 0.000153463)
(-0.000115711 -9.78183e-05 0.000136689)
(-8.59953e-05 -6.44592e-05 0.000191806)
(-7.3243e-05 -3.62137e-05 0.000146466)
(-6.92309e-05 -5.68883e-05 0.000142792)
(0.000294709 2.30961e-05 0.000514724)
(0.000335268 4.98041e-05 0.000607905)
(0.000293677 -3.65443e-06 0.000522839)
(0.000294814 2.76634e-05 0.000521496)
(0.000501871 0.000145122 0.000460911)
(0.000553861 0.000151412 0.000571151)
(0.000413346 0.000146389 0.000483081)
(0.000452849 0.000136577 0.000569868)
(0.000367786 0.000138935 0.000542876)
(0.000366239 0.000125414 0.000575599)
(0.000508039 0.000210627 0.000641136)
(0.000430325 0.000183841 0.000456941)
(0.000503639 0.000195281 0.000589366)
(0.000330275 0.000134511 0.000494604)
(0.000437456 0.000167143 0.000623274)
(0.00056405 0.000188853 0.000444277)
(0.000461899 0.000184077 0.000499494)
(0.000472886 0.000184296 0.000511224)
(0.000480745 0.000165413 0.000644069)
(0.000528347 0.00021914 0.000590119)
(0.00057724 0.000241878 0.000544815)
(0.000518553 0.000224458 0.000503027)
(0.000511884 0.000189303 0.000610055)
(0.000499296 0.000188439 0.000637395)
(0.000554307 9.14688e-05 0.000552055)
(0.000694305 9.19723e-05 0.000584294)
(0.000543277 0.000120606 0.000550605)
(0.000418997 0.000127547 0.000394762)
(0.000517878 0.000118519 0.000497656)
(0.000523192 8.21894e-05 0.000435107)
(0.00039078 5.64547e-05 0.000297941)
(0.000421132 0.000120361 0.000351163)
(0.000484156 0.000101213 0.000350977)
(0.00044524 0.000101942 0.000320878)
(0.000627862 -5.93854e-05 0.000508029)
(0.000649997 -9.25921e-05 0.000483842)
(0.000678435 -0.000225057 0.000424058)
(0.000495191 -0.000102186 0.000356682)
(0.000586264 -0.000186776 0.000284264)
(0.000468605 -3.84362e-05 0.000312173)
(0.000619617 -0.000203357 0.000277375)
(0.000381251 -5.37772e-05 0.000219882)
(0.000509862 -0.000155185 0.000177201)
(0.000671063 -0.000327328 0.000169809)
(0.000392111 4.44005e-05 0.000300569)
(0.000401899 7.90932e-05 0.000290088)
(0.000406613 -5.40759e-06 0.00020416)
(0.000400411 4.36678e-05 0.000204017)
(0.000535642 0.000194426 0.000383758)
(0.000515661 0.000191737 0.000509492)
(0.000544071 0.000195334 0.000459709)
(0.000556756 0.000159527 0.000342426)
(0.000630583 0.00021228 0.000371143)
(0.000605818 0.00025306 0.000513025)
(0.000499117 0.000194902 0.000522777)
(0.000545899 0.000199517 0.00055446)
(0.000577855 0.000229624 0.000331187)
(0.000543248 0.000200612 0.000489484)
(0.000539016 0.000207903 0.000501899)
(0.000622092 0.000249068 0.000613277)
(0.000634471 0.000250835 0.000463253)
(0.000473051 0.000124278 0.000284084)
(0.000671342 0.000205312 0.000308235)
(0.000497914 9.555e-05 0.000252465)
(0.000666292 0.000158238 0.000240535)
(0.000619656 0.000230711 0.000317883)
(0.000610932 0.000199561 0.000381847)
(0.00082925 0.00033775 0.000419365)
(0.000649104 0.000226181 0.000265369)
(0.000606923 0.000181527 0.000279363)
(0.000879984 0.000330842 0.000307926)
(0.000645781 0.000311347 0.000401599)
(0.000683095 0.000259764 0.000530901)
(0.000620028 0.000230998 0.000566081)
(0.000753399 0.000297858 0.000477258)
(0.000772288 0.000302829 0.000436184)
(0.00038607 0.000146834 0.000531115)
(0.000396667 0.000151701 0.000539951)
(0.000273894 7.39482e-05 0.000519063)
(0.000404906 0.0001457 0.000607589)
(0.000462486 0.000129668 0.000696533)
(0.000436793 0.000129175 0.000646489)
(0.000391458 0.000133331 0.000539158)
(0.000417433 0.0001457 0.000572301)
(0.000412607 0.000141094 0.000637953)
(0.00037357 4.83096e-05 0.000685225)
(0.000325428 2.46954e-05 0.000627076)
(0.000387192 9.23722e-05 0.00067371)
(0.000353603 8.30301e-05 0.000619252)
(0.000312911 1.75797e-05 0.000532059)
(0.000426632 0.000145565 0.000575374)
(0.00045962 0.000113907 0.000669256)
(0.000395478 9.63853e-05 0.000619617)
(0.000389067 -2.76301e-05 0.000656673)
(0.000487584 0.00013306 0.00075688)
(0.000372015 4.99834e-05 0.000657751)
(0.000483866 0.000193672 0.000557406)
(0.000541999 0.000211636 0.000612361)
(0.000484039 0.000145716 0.000693739)
(0.000434565 0.000158697 0.000584306)
(0.000511272 0.000194354 0.000600947)
(0.00051858 0.000110414 0.000748623)
(0.000510484 0.000120633 0.000803551)
(0.000406281 1.86271e-05 0.000711372)
(0.000366311 1.58805e-05 0.000619433)
(0.000396356 4.09573e-05 0.000664373)
(0.000457475 9.81239e-05 0.000700592)
(0.000383603 4.37035e-05 0.000619849)
(0.000502839 0.000189127 0.000627739)
(0.000515721 7.85242e-05 0.000782352)
(0.000578772 0.000159013 0.000853145)
(0.000275633 -3.78264e-06 0.000487186)
(0.000290031 3.68261e-05 0.000508035)
(0.000349996 0.000114589 0.000552308)
(0.000359388 6.87443e-05 0.000609831)
(0.000336421 1.30063e-05 0.000559194)
(0.00042847 7.05728e-05 0.000689593)
(0.00031921 -2.78137e-05 0.000541066)
(0.000325924 1.29033e-05 0.000547669)
(0.000412242 0.000117653 0.000650122)
(0.000333871 3.68831e-05 0.000567021)
(0.000289389 2.80057e-05 0.000484602)
(0.00034406 -3.64705e-06 0.000567332)
(0.000296566 3.41194e-05 0.000496409)
(0.000329899 3.3789e-05 0.000542667)
(0.00040029 2.30682e-05 0.000652525)
(0.000306358 7.50772e-05 0.000525494)
(0.000300331 4.34015e-05 0.000501437)
(0.000385624 -6.13841e-05 0.000588323)
(0.000464361 9.82905e-05 0.000741594)
(0.00040241 -4.68147e-05 0.000688299)
(0.000503781 4.11678e-05 0.000826509)
(0.000385045 -1.53491e-05 0.000653309)
(0.000404928 -4.46518e-06 0.000683777)
(0.000517217 0.000127868 0.000761027)
(0.00040748 2.65365e-05 0.000654966)
(0.000465854 6.84818e-06 0.000745753)
(0.000492317 2.64715e-05 0.000805233)
(0.000488976 9.08442e-06 0.000781593)
(0.000397754 1.65642e-05 0.000635403)
(0.000447866 2.0184e-05 0.000709804)
(0.000393858 1.0795e-05 0.000622586)
(0.000446928 3.40446e-05 0.000703656)
(0.000561913 0.000183609 0.000700297)
(0.000581714 0.000225451 0.000624869)
(-2.11633e-05 -4.95211e-05 0.000161243)
(0.000562869 0.000146292 0.000785701)
(0.000499592 0.000142523 0.000677242)
(0.000692515 0.000288918 0.000630775)
(0.000596404 0.000249066 0.000583566)
(0.000646961 0.000245297 0.00066757)
(-2.54519e-05 -4.91982e-05 0.000160712)
(0.000574826 0.000192585 0.000727403)
(0.000556821 0.000207867 0.000650947)
(0.000616977 0.00023733 0.000689242)
(0.000564694 0.000166164 0.000785935)
(0.000610782 0.000157126 0.000912536)
(-2.30558e-05 -4.89277e-05 0.000157865)
(0.000456873 5.22327e-05 0.000738922)
(0.000419255 3.4801e-05 0.000706356)
(0.000448044 5.88342e-05 0.000712534)
(0.000520684 3.51985e-05 0.000801969)
(0.000445976 8.53368e-05 0.000696932)
(-2.55438e-05 -3.83844e-05 0.000160918)
(0.000564515 0.000220285 0.000671679)
(0.0005923 0.000106756 0.000849667)
(0.000662489 0.000195757 0.000916249)
(0.000671396 0.000250178 0.000722599)
(0.000788952 0.000315064 0.000590409)
(0.000887319 0.000377244 0.000541216)
(0.000639664 0.000202955 0.000800403)
(0.000622119 0.000211151 0.000701629)
(0.000672764 0.000314178 0.000550689)
(0.000716102 0.000291636 0.000601479)
(0.000682325 0.000251561 0.000707922)
(0.00070018 0.000260667 0.000763616)
(0.000775443 0.000329963 0.000742915)
(0.000669407 0.000230872 0.000809063)
(0.000664287 0.000166004 0.000914027)
(0.000551252 0.00014402 0.000758795)
(0.000604937 0.000126276 0.000946884)
(0.000489558 8.33711e-05 0.000743318)
(0.000576774 7.6441e-05 0.000875573)
(0.000714383 0.000250918 0.000889133)
(0.000604451 0.000208676 0.00074773)
(0.00064861 0.000186278 0.000903994)
(0.000525511 9.1051e-05 0.000845405)
(0.00054115 0.000140743 0.000775126)
(0.000720002 0.000130003 0.00100912)
(0.000622882 0.000115704 0.00097777)
(0.000571335 3.91611e-05 0.00092135)
(0.000557123 1.54162e-05 0.000884598)
(0.000459729 7.03255e-06 0.000771229)
(0.000446202 2.9692e-05 0.000723583)
(0.000588941 9.65334e-05 0.000859504)
(0.000599414 0.000106019 0.000938424)
(0.000559057 7.41257e-06 0.000879221)
(0.000573627 2.85194e-05 0.000901142)
(0.000573491 -3.22244e-05 0.00088994)
(0.000549183 4.10779e-05 0.000840138)
(0.000651519 0.000121941 0.000949799)
(-3.15588e-05 -4.353e-05 0.000169388)
(0.000485643 -1.08573e-05 0.000794825)
(0.000440402 3.12165e-05 0.000703677)
(0.00064008 0.000145036 0.000942743)
(0.000668158 0.000191087 0.000998379)
(0.000555227 5.8825e-06 0.000924036)
(0.000697642 6.75192e-05 0.00109989)
(0.000512368 4.06284e-05 0.000803298)
(0.000629681 2.90307e-05 0.000966051)
(0.000503719 7.24833e-05 0.000797603)
(0.000482836 3.26815e-06 0.000737945)
(0.000609026 -7.19231e-05 0.000904139)
(0.00068147 4.38832e-05 0.00107762)
(0.000676612 3.04279e-05 0.00106285)
(0.000289267 -3.10509e-05 0.000426651)
(0.000217681 2.68029e-05 0.000348247)
(0.000226284 2.83503e-05 0.000348487)
(0.000216478 1.86564e-05 0.000343942)
(0.000164114 4.00653e-05 0.0003036)
(0.000192387 4.60993e-05 0.000335735)
(0.000234494 3.22179e-05 0.00034996)
(0.000186157 5.68796e-05 0.000333179)
(0.000298014 4.06008e-05 0.000530241)
(0.000287022 5.56763e-05 0.000489104)
(-2.32553e-05 -4.20991e-05 0.00015436)
(-2.69468e-05 -4.41509e-05 0.000161322)
(-2.49199e-05 -4.07636e-05 0.000149357)
(-2.6413e-05 -3.70668e-05 0.000150244)
(0.000298002 4.79214e-05 0.000489608)
(0.000259059 8.239e-05 0.000444088)
(0.000293721 3.95043e-05 0.000432537)
(0.000242881 6.20157e-05 0.00038847)
(0.000289666 2.79784e-05 0.000418352)
(0.000261789 5.81217e-05 0.000401102)
(-2.98908e-05 -3.64879e-05 0.000155725)
(0.000285957 3.49863e-05 0.000411568)
(-3.52466e-05 -2.91304e-05 0.000165873)
(-3.02938e-05 -3.48292e-05 0.000156766)
(0.000158162 6.89927e-05 0.000291187)
(0.000143842 6.52534e-05 0.000260278)
(0.000141355 5.83485e-05 0.000262564)
(-3.36547e-05 -3.46743e-05 0.000154798)
(-2.67325e-05 -3.87271e-05 0.000165754)
(-2.61098e-05 -4.22457e-05 0.000162215)
(-3.25403e-05 -3.4041e-05 0.000176169)
(-3.41242e-05 -4.27248e-05 0.000183945)
(-2.9924e-05 -3.0594e-05 0.00016778)
(-2.87547e-05 -2.6477e-05 0.000160425)
(-3.48874e-05 -3.4771e-05 0.00016)
(4.96152e-05 4.87929e-05 0.000251182)
(8.85659e-05 5.74251e-05 0.000281369)
(6.69944e-05 5.06238e-05 0.000234865)
(2.11549e-05 3.48781e-05 0.000246413)
(5.9186e-05 4.83735e-05 0.000240468)
(0.000112765 5.53883e-05 0.000246321)
(0.000143961 6.80328e-05 0.000288417)
(0.000185428 5.53466e-05 0.000258697)
(0.000160247 5.8025e-05 0.000252934)
(0.000154081 7.31225e-05 0.000279876)
(9.795e-05 6.14354e-05 0.000236596)
(0.000134331 6.16487e-05 0.000238745)
(0.00020544 5.11541e-05 0.000299873)
(0.000192464 5.2881e-05 0.000299846)
(0.00024507 3.55817e-05 0.000331578)
(0.000189185 4.97243e-05 0.000312875)
(0.000216864 3.40633e-05 0.000316057)
(0.000187843 4.87904e-05 0.000307085)
(0.000240985 7.30767e-05 0.000354366)
(0.000249538 4.48567e-05 0.000314961)
(0.000209296 5.41052e-05 0.00030328)
(0.000198168 5.34513e-05 0.000298598)
(0.000255793 3.8936e-05 0.000370296)
(0.000241754 4.26052e-05 0.000324971)
(0.00027491 6.17697e-05 0.000401809)
(0.000197272 7.98924e-05 0.000318508)
(0.000260509 4.40607e-05 0.000336564)
(0.000233632 4.51809e-05 0.000292244)
(0.000266837 5.13619e-05 0.000340197)
(0.000229459 6.43415e-05 0.000327161)
(0.000251913 6.47076e-05 0.00037805)
(0.000294 3.38445e-05 0.000399756)
(0.00029703 2.02376e-05 0.00038112)
(0.000314092 5.52195e-05 0.000440143)
(0.000326512 5.79541e-05 0.000434153)
(0.000316022 2.67065e-05 0.000371993)
(0.000285431 2.63797e-05 0.000306387)
(0.00030926 4.71236e-05 0.000373)
(0.000218827 5.07696e-05 0.000274865)
(0.000181301 4.67453e-05 0.000241104)
(0.000230554 6.0708e-05 0.00028958)
(-1.04528e-05 1.77797e-05 0.000202968)
(2.47783e-05 3.43693e-05 0.000197157)
(-3.45793e-05 -1.94673e-06 0.000160171)
(1.641e-05 2.03888e-05 0.000153294)
(6.45905e-05 4.35726e-05 0.000197878)
(0.000127879 4.97938e-05 0.000213651)
(6.48439e-05 4.06083e-05 0.000177285)
(-7.60278e-05 -2.69296e-05 0.000107108)
(9.58835e-06 7.42555e-06 9.09976e-05)
(-9.41475e-05 -6.28396e-05 7.9001e-05)
(-7.913e-05 -3.79607e-05 6.29677e-05)
(-2.97626e-05 -1.16478e-05 4.14567e-05)
(1.79199e-05 1.32469e-05 9.84319e-05)
(3.15967e-05 1.44059e-05 7.22546e-05)
(7.25589e-05 3.41293e-05 0.00013087)
(0.000115576 2.83793e-05 9.9674e-05)
(9.52287e-06 4.13736e-06 4.40857e-05)
(3.66056e-05 1.49203e-05 6.5075e-05)
(0.000111866 3.19631e-05 8.38361e-05)
(0.00030137 5.20388e-05 0.000349098)
(0.000381343 1.68713e-05 0.000426881)
(0.000328303 2.98576e-05 0.00037635)
(0.000381436 2.66832e-05 0.000421328)
(0.000185694 5.79582e-05 0.000247376)
(0.000280289 3.4507e-05 0.000298788)
(0.000233478 4.50191e-05 0.000262491)
(0.000268051 4.81671e-05 0.000300415)
(0.000180849 5.50791e-05 0.000219858)
(0.000229326 5.30056e-05 0.000273448)
(0.000316588 1.49439e-05 0.000271418)
(0.000387441 2.77995e-05 0.000359057)
(0.000405223 7.33724e-07 0.000397731)
(0.000369883 1.3788e-05 0.00033422)
(0.000334994 4.12261e-05 0.000363583)
(0.000176319 3.49416e-05 0.000128741)
(0.000209406 3.7614e-05 0.000173944)
(0.00027992 2.39064e-05 0.000226591)
(0.000246098 2.99656e-05 0.000163352)
(0.000251841 3.76615e-05 0.000200853)
(0.000166072 3.89474e-05 0.000126725)
(0.000227229 3.45124e-05 0.000163053)
(0.000347803 3.5804e-05 0.000298951)
(0.000386166 5.80073e-06 0.000317389)
(0.000442493 -9.33619e-06 0.000315593)
(0.000366729 1.42162e-05 0.000260477)
(0.000328227 1.87523e-05 0.00022672)
(0.000360572 1.15273e-05 0.000233711)
(0.000268291 5.16602e-05 0.000460021)
(0.000276169 3.20795e-05 0.000459475)
(0.000314862 -1.36892e-05 0.000493265)
(0.000303086 1.80454e-05 0.000479338)
(0.000250102 6.90298e-05 0.000431108)
(0.000284649 1.61199e-05 0.000438021)
(0.000397799 -1.92615e-05 0.000594452)
(0.000275416 3.47239e-05 0.000457352)
(0.000293017 2.12773e-05 0.000458715)
(0.000337854 3.19219e-05 0.000528307)
(0.000319713 1.41033e-05 0.000465867)
(0.000282414 3.51074e-05 0.000427702)
(0.000314683 3.61246e-05 0.000474002)
(0.000412804 1.39865e-06 0.000596215)
(0.000440561 2.10404e-05 0.000726214)
(0.000325404 4.55257e-05 0.000520744)
(0.000367981 4.82647e-05 0.000597085)
(0.00037024 5.63004e-05 0.000621827)
(0.000387015 7.42199e-06 0.000593931)
(0.000511827 -6.11492e-05 0.000723083)
(0.000461378 -7.23951e-05 0.000631793)
(0.00037184 8.21813e-05 0.000624964)
(0.000378473 1.6855e-05 0.000582263)
(0.000322324 4.1e-05 0.000491366)
(0.000364574 3.47341e-05 0.000545398)
(0.000344734 1.94619e-05 0.00048559)
(0.0002892 4.35083e-05 0.000427514)
(0.000332999 3.82055e-05 0.000480805)
(-3.6432e-05 -3.02014e-05 0.000161865)
(0.000416048 -2.27097e-05 0.000562692)
(0.000359144 2.95298e-05 0.000491857)
(0.000409742 4.37785e-05 0.0005677)
(0.000358699 2.54045e-05 0.000547994)
(0.000399154 8.65237e-06 0.000557436)
(0.000463 -3.21091e-06 0.00063173)
(0.000375801 6.82498e-06 0.000489436)
(0.000338883 1.82037e-05 0.000415381)
(0.000350394 5.16674e-05 0.000496394)
(0.000584012 -2.65139e-05 0.000893686)
(0.000395001 3.78928e-05 0.00062127)
(-3.65628e-05 -2.59805e-05 0.000149543)
(0.000413497 2.11225e-05 0.000617288)
(0.000473214 2.56922e-05 0.000713071)
(0.000559227 -2.43437e-05 0.000815153)
(0.000533958 -4.48305e-05 0.000729137)
(0.000371853 2.70009e-05 0.000540831)
(-4.17107e-05 -2.14101e-05 0.000161377)
(0.000434308 -6.1872e-05 0.000507634)
(0.000470295 1.73769e-05 0.000646479)
(0.00053397 -9.40201e-06 0.000786175)
(0.000445568 1.65711e-05 0.000654232)
(0.000504445 3.04722e-05 0.00073327)
(0.000547291 -3.69216e-06 0.000751907)
(0.000455705 5.91518e-05 0.00065863)
(0.000610984 -5.68117e-05 0.000797292)
(0.000499793 -1.16755e-05 0.000659676)
(0.0005475 1.1487e-05 0.000760226)
(0.000446655 4.02585e-05 0.000705339)
(0.000447988 -6.85848e-06 0.000665651)
(0.000546029 -3.36965e-05 0.000793392)
(0.000606017 -1.26979e-05 0.000918001)
(0.000575812 -7.40899e-05 0.000835231)
(0.000515223 0.000100484 0.000820589)
(0.000630447 -5.47607e-05 0.000956898)
(0.000581712 0.000121666 0.000932761)
(0.000541514 4.5122e-05 0.000850981)
(0.000524032 2.57949e-05 0.000795497)
(0.000623426 -3.63039e-05 0.000905164)
(0.000493182 8.02879e-06 0.000755252)
(0.000520489 -4.14086e-06 0.000745917)
(0.000604304 -3.61831e-05 0.000837348)
(0.000711399 -5.72568e-05 0.000957572)
(0.000519781 -8.57935e-06 0.000755196)
(0.000570059 -3.39325e-05 0.000737983)
(0.000629044 3.33458e-05 0.00088203)
(0.000381657 3.21913e-05 0.00048198)
(0.000367067 -1.42606e-05 0.000454487)
(0.000418866 -2.26349e-05 0.000470326)
(0.000427493 3.80771e-05 0.000570647)
(0.000502569 5.914e-06 0.000645026)
(0.000440747 4.31443e-05 0.000560552)
(0.000433672 -9.30757e-06 0.000485149)
(0.000412832 7.71157e-06 0.000421554)
(0.000433407 1.94263e-05 0.000470091)
(0.000521913 -1.59494e-05 0.000578793)
(0.000477175 -1.98366e-05 0.000492525)
(0.000516219 -9.59316e-06 0.000558955)
(0.000562899 -3.74277e-05 0.000672976)
(-4.44445e-05 -1.72065e-05 0.00015962)
(0.000477647 -2.30399e-06 0.000589706)
(0.000525219 -3.08252e-06 0.000655912)
(0.00065962 -8.53877e-05 0.000809556)
(0.000562311 -2.55449e-05 0.000672294)
(0.000600076 2.00539e-06 0.000773646)
(-4.77531e-05 -1.24953e-05 0.000160944)
(0.000605573 -6.20403e-05 0.000670749)
(0.000573233 -8.69118e-05 0.000516491)
(-3.62687e-05 -3.47066e-05 0.000184474)
(0.000575203 6.66728e-07 0.000683787)
(0.000466091 -5.66152e-06 0.000460649)
(-4.03526e-05 -2.7366e-05 0.000187781)
(0.000451577 -1.54703e-05 0.000398312)
(0.000467755 1.01983e-05 0.000457919)
(-3.45223e-05 -3.44877e-05 0.00016959)
(0.000534018 -2.25355e-06 0.000430269)
(-3.76604e-05 -1.68608e-05 0.00017084)
(-4.10029e-05 -2.8907e-05 0.000184493)
(0.000526667 -5.63448e-05 0.000469339)
(0.000539599 -6.49149e-05 0.000414341)
(-4.2203e-05 -2.75311e-05 0.000184296)
(0.000544737 7.06342e-06 0.000577207)
(0.000570646 -0.000425812 0.000165214)
(-4.57629e-05 -2.00411e-05 0.000179561)
(0.000599701 -0.000453501 7.58166e-05)
(0.000491303 -0.000385587 9.33053e-05)
(-4.47471e-05 -2.06665e-05 0.000183594)
(0.000439796 -0.000375695 0.000155599)
(0.000482374 -0.000407819 0.000117913)
(-4.86674e-05 -1.3234e-05 0.000192382)
(0.000374774 -0.000335293 0.000105236)
(0.000443958 -0.000346593 0.000199938)
(-3.74069e-05 -1.98155e-05 0.000165417)
(-3.38705e-05 -1.75569e-05 0.000152472)
(0.000470708 -0.000381725 8.63981e-05)
(-3.95268e-05 -2.39785e-05 0.000154948)
(-4.14263e-05 -1.84016e-05 0.00016943)
(0.00032735 -0.000301724 0.000157956)
(-3.9842e-05 -1.59861e-05 0.000153821)
(-4.38161e-05 -1.3377e-05 0.000167815)
(0.000372749 -0.000345539 0.00013668)
(-4.23741e-05 -1.27382e-05 0.000151989)
(0.000289055 -0.00026705 0.00013312)
(0.000208044 -0.000209094 0.000126739)
(0.000284927 -0.000271539 0.000159378)
(0.000224634 -0.000197002 0.000160175)
(0.000190078 -0.00018823 0.000125367)
(0.000241378 -0.000212913 0.000139399)
(0.000195321 -0.000180098 0.000132874)
(0.000317874 -0.000258237 0.000198583)
(0.000342724 -0.000291625 0.000132273)
(0.000378956 -0.000372485 6.53414e-05)
(0.000504162 -0.000423995 7.69243e-05)
(0.000367029 -0.000306302 0.00011729)
(0.00022708 -0.00022724 8.63954e-05)
(0.000361714 -0.000333853 0.000111616)
(0.000269641 -0.000228366 0.000145775)
(0.000251393 -0.00024079 0.000154095)
(0.000271792 -0.000222153 0.000171131)
(0.000312212 -0.0002614 0.000112578)
(0.000148743 -0.000170946 7.57785e-05)
(0.000213112 -0.000186045 0.000119308)
(0.000167542 -0.000146921 0.000122224)
(9.64097e-05 -8.39821e-05 0.000112695)
(0.000141412 -0.000122662 0.000136609)
(0.000121652 -7.96882e-05 0.000150401)
(0.00011126 -8.19903e-05 0.00014775)
(9.86184e-05 -4.07277e-05 0.000150684)
(7.52233e-05 -4.93448e-05 0.000116315)
(-2.56387e-05 -3.89338e-05 0.000145575)
(8.68759e-05 -4.59853e-05 0.000119887)
(8.2664e-05 -5.02049e-05 0.000107679)
(7.82354e-05 -3.15748e-05 0.000123628)
(7.3256e-05 -1.7904e-05 0.000113246)
(0.000187853 -0.000187453 0.000150585)
(-2.84707e-05 -3.56315e-05 0.000147955)
(0.000126074 -0.00012242 0.000115255)
(0.000175234 -0.000153373 0.000133933)
(0.000150917 -0.000121215 0.000141898)
(0.000127592 -0.000109267 0.000140373)
(0.00013761 -0.000111344 0.000146823)