/*--------------------------------*- C++ -*----------------------------------*\
  =========                 |
  \\      /  F ield         | OpenFOAM: The Open Source CFD Toolbox
   \\    /   O peration     | Website:  https://openfoam.org
    \\  /    A nd           | Version:  7
     \\/     M anipulation  |
\*---------------------------------------------------------------------------*/
FoamFile
{
    version     2.0;
    format      ascii;
    class       volVectorField;
    location    "250";
    object      wallShearStress;
}
// * * * * * * * * * * * * * * * * * * * * * * * * * * * * * * * * * * * * * //

dimensions      [0 2 -2 0 0 0 0];

internalField   uniform (0 0 0);

boundaryField
{
    wall
    {
        type            calculated;
        value           nonuniform List<vector> 
73765
(
(7.81791e-11 -2.93522e-11 -4.96412e-11)
(2.14572e-10 -1.61194e-11 1.99485e-10)
(-1.79009e-11 -1.55027e-11 2.19561e-12)
(-1.35247e-10 -3.33008e-10 2.06027e-10)
(-5.13004e-10 -1.05174e-09 4.65615e-10)
(4.37855e-11 3.40373e-11 2.87331e-10)
(-4.9308e-10 -1.04724e-10 5.42495e-10)
(-1.04861e-10 -2.41407e-11 9.88623e-11)
(-4.40915e-10 -1.38795e-09 1.93222e-10)
(1.10831e-10 5.83789e-11 3.99449e-10)
(-3.2406e-10 4.00937e-11 5.62801e-10)
(1.57582e-10 2.89663e-10 2.07638e-10)
(3.19209e-11 2.85122e-10 4.26893e-10)
(-1.40504e-10 -2.15965e-10 1.72588e-10)
(-3.03544e-10 -5.01684e-10 2.53316e-10)
(-1.03243e-09 -1.20145e-09 6.64858e-10)
(-7.21851e-10 -7.28089e-10 7.31141e-10)
(-5.29972e-10 -1.11695e-09 2.39772e-10)
(-8.81489e-11 -1.3618e-09 -3.3853e-12)
(-7.28356e-11 -1.30635e-09 1.77333e-10)
(-2.75296e-10 -1.28141e-09 4.62526e-10)
(-1.63163e-10 -1.06498e-09 6.4075e-11)
(-4.42166e-10 -8.99379e-10 2.41869e-10)
(-2.28967e-10 -8.02107e-10 1.67782e-11)
(4.77307e-11 9.24364e-11 2.68343e-10)
(5.02216e-11 8.03241e-11 1.87457e-10)
(1.70746e-10 2.37502e-11 3.32021e-10)
(2.65572e-10 -1.50421e-10 -1.32007e-10)
(1.54789e-11 7.01782e-12 -5.81093e-12)
(-1.18381e-10 -8.22324e-12 1.42627e-11)
(-1.1709e-10 3.96219e-12 2.5081e-11)
(-9.95762e-11 -4.32414e-11 -9.88537e-12)
(-1.69359e-10 -9.85189e-11 1.39887e-10)
(-7.73887e-11 -1.07394e-09 -2.45259e-10)
(-3.80657e-10 -1.71452e-09 -1.8039e-11)
(8.48555e-11 -9.7041e-10 2.12989e-12)
(-1.37489e-09 -1.72216e-09 7.17498e-10)
(-4.26286e-10 -1.04667e-09 2.4606e-10)
(-1.10465e-09 -1.48013e-09 9.14195e-10)
(2.8394e-11 8.07242e-12 8.00965e-11)
(1.027e-10 1.05757e-10 2.79514e-10)
(7.03846e-11 3.39715e-12 1.026e-10)
(3.62256e-11 2.77336e-11 1.59838e-10)
(2.04526e-10 1.53626e-10 4.00956e-10)
(1.94825e-10 1.0398e-10 2.78191e-10)
(1.58232e-10 6.30843e-11 2.90109e-10)
(2.88617e-10 -1.28876e-10 -1.05682e-10)
(1.91994e-10 -1.02298e-10 -5.41288e-11)
(-1.81059e-10 -9.87238e-11 6.04375e-10)
(-2.37085e-10 -1.07188e-11 4.35681e-10)
(-1.08829e-10 -1.13056e-10 2.33341e-10)
(-1.48782e-10 -1.64471e-11 -7.00943e-11)
(4.36432e-11 7.34698e-12 2.8135e-11)
(-1.80862e-10 -2.43039e-11 6.84292e-11)
(-4.17326e-10 -7.46332e-10 3.52851e-10)
(-2.24276e-10 -4.46625e-10 2.56393e-10)
(-2.12034e-10 -5.68312e-10 3.3265e-10)
(6.0676e-11 -4.75953e-11 2.11395e-10)
(7.17332e-11 -1.26947e-10 1.7079e-10)
(2.88742e-10 -1.82267e-09 -1.10787e-10)
(2.08716e-10 -1.28787e-09 -7.80017e-11)
(1.29786e-10 -1.198e-09 -6.29415e-11)
(-7.50167e-10 -1.77469e-09 1.4492e-11)
(-2.62869e-10 -1.70561e-09 -1.03608e-10)
(-3.77992e-11 1.64461e-11 1.87371e-12)
(1.66105e-11 1.84805e-11 -2.30857e-11)
(1.47462e-11 2.04741e-11 -2.88055e-11)
(8.22378e-12 2.14322e-11 -3.25301e-11)
(-5.82492e-12 2.12555e-11 -3.69121e-11)
(1.89833e-10 -1.24358e-09 6.25981e-11)
(-6.57929e-10 -1.35078e-09 3.34363e-10)
(-4.03934e-10 -1.35467e-09 8.30903e-11)
(-1.07795e-09 -1.38169e-09 3.99152e-10)
(-1.02851e-09 -1.60409e-09 5.03663e-10)
(-7.51387e-10 -1.07264e-09 2.19532e-10)
(-5.54273e-10 -8.90905e-10 2.60676e-10)
(-6.17888e-10 -1.19174e-09 7.79676e-11)
(-8.93958e-10 -8.2284e-10 8.28892e-10)
(-1.18305e-09 -1.31055e-09 6.17617e-10)
(-6.03518e-10 -7.72782e-10 8.31654e-10)
(-4.7475e-10 -6.50667e-10 5.72948e-10)
(-1.31626e-10 -1.34958e-09 5.45005e-11)
(-2.47786e-10 -9.95375e-10 1.12054e-10)
(-4.04187e-10 -1.55549e-09 1.15394e-09)
(-3.0487e-10 -1.6644e-09 1.11333e-09)
(-4.39571e-10 -1.28049e-09 7.61529e-10)
(-3.8195e-10 -1.29394e-09 5.45373e-10)
(-1.96179e-10 -9.8894e-10 1.11212e-10)
(-1.00753e-09 -1.8367e-09 1.3096e-09)
(-5.27268e-10 -8.88538e-10 2.38099e-10)
(-5.04349e-10 -1.2187e-09 3.2079e-10)
(2.35213e-10 5.43833e-11 3.70781e-10)
(-2.21668e-10 7.01765e-11 4.01338e-10)
(-1.57036e-10 -1.61057e-09 -7.95459e-11)
(2.83842e-10 -1.67612e-09 -1.34177e-10)
(-3.70084e-10 -1.90776e-09 -4.59043e-11)
(-1.49498e-10 -2.28597e-11 6.76323e-10)
(-2.50049e-10 -3.64368e-11 4.95053e-10)
(-1.24052e-10 -3.4299e-11 2.11119e-11)
(-1.44484e-10 -1.08306e-09 7.85989e-11)
(3.9493e-11 6.72893e-11 1.49694e-10)
(-1.6873e-10 -3.94141e-11 5.10925e-10)
(-9.61663e-11 2.66383e-11 -8.3185e-11)
(4.78621e-11 -3.0536e-12 1.67848e-11)
(3.44232e-10 3.84331e-10 5.40574e-10)
(6.72563e-10 3.71534e-10 6.94883e-10)
(-1.51946e-10 -6.82071e-11 -6.60782e-12)
(-1.69812e-10 -1.4301e-10 1.46636e-10)
(-1.50593e-10 -1.42356e-10 1.51983e-10)
(-9.18921e-11 -3.18607e-12 3.9397e-12)
(-1.33607e-10 -1.5677e-11 3.1412e-11)
(1.35624e-10 -5.18003e-10 -3.21192e-11)
(-1.5599e-10 -1.25808e-09 -2.37402e-10)
(-1.18515e-10 -9.851e-10 -2.197e-10)
(-2.20608e-10 -1.50974e-09 -1.91856e-10)
(4.02991e-11 -8.00064e-11 1.77939e-10)
(-2.82008e-11 1.80658e-11 -1.66564e-11)
(-2.02772e-10 -7.85363e-10 -5.1865e-12)
(-6.13909e-10 -1.61199e-09 3.2327e-10)
(-4.46036e-10 -1.34039e-09 6.96179e-10)
(2.192e-10 -8.90744e-12 2.03149e-10)
(2.12906e-10 -5.8903e-11 1.32802e-11)
(2.23598e-10 -1.42623e-10 -8.72874e-11)
(-1.75143e-10 -6.29675e-11 1.05116e-10)
(-1.96916e-10 -1.33554e-09 -2.31463e-10)
(-1.63692e-10 -1.00378e-09 -2.15349e-10)
(-2.69003e-11 -8.16889e-10 -2.08205e-11)
(-3.86309e-10 -1.75296e-09 9.29679e-12)
(-9.20193e-10 -1.50699e-09 6.3176e-10)
(-1.11171e-10 -8.59459e-10 2.3801e-12)
(-1.95368e-10 -8.28965e-10 -3.814e-11)
(8.97452e-11 9.03345e-11 3.43623e-10)
(1.15111e-10 9.91928e-11 3.28016e-10)
(2.28547e-10 -6.06921e-12 2.73347e-10)
(1.85455e-10 -1.5551e-11 2.76138e-10)
(3.32316e-10 -1.20511e-10 -8.10241e-11)
(3.15005e-10 -1.16897e-10 -4.06417e-11)
(2.5152e-10 -8.19692e-11 -1.63455e-11)
(2.62981e-10 -1.2361e-10 -2.07554e-11)
(2.2917e-10 -8.5644e-11 -3.14385e-11)
(2.62873e-10 -1.26981e-10 -6.22543e-11)
(2.40409e-10 -8.848e-11 -2.59454e-11)
(1.80882e-10 -5.2664e-11 -1.64432e-11)
(1.39198e-10 -5.60839e-11 -2.20331e-11)
(1.84884e-10 -8.63995e-11 -2.99308e-11)
(1.67661e-10 -8.61038e-11 -1.65672e-11)
(1.65598e-10 -8.46889e-11 -9.6215e-11)
(-1.74471e-10 -8.21471e-11 6.56419e-10)
(-2.26367e-10 -7.21149e-11 6.80307e-10)
(-1.75615e-12 -3.48747e-13 -6.7051e-13)
(1.33868e-10 1.85632e-09 9.03088e-09)
(-1.36004e-10 -1.08421e-11 -6.91065e-11)
(-1.49544e-10 -1.77539e-11 -9.06679e-11)
(7.35454e-10 4.33621e-10 5.60957e-10)
(4.25037e-10 3.58726e-10 2.97465e-10)
(9.22749e-10 3.77226e-10 4.44719e-10)
(4.56212e-10 4.331e-10 5.03505e-10)
(7.80103e-10 4.40928e-10 6.61269e-10)
(7.57876e-10 3.98368e-10 5.42112e-10)
(-1.41485e-10 -3.71412e-11 2.7467e-11)
(-1.72152e-10 -1.32354e-10 2.91635e-11)
(-1.8933e-10 -1.338e-10 5.98971e-11)
(-1.26195e-10 -6.15772e-11 1.68265e-11)
(-9.63203e-11 1.46908e-11 2.84541e-11)
(-1.59332e-10 -1.97869e-10 2.21519e-11)
(-1.59165e-10 -2.74124e-10 1.93295e-10)
(-1.58255e-10 -1.49987e-10 7.79266e-12)
(-1.55052e-10 -2.14807e-10 4.07844e-11)
(-1.70433e-10 -2.21882e-11 9.45583e-11)
(-1.82764e-10 -3.04108e-11 4.59665e-11)
(-1.75709e-10 -4.29254e-11 6.9625e-11)
(-1.46336e-10 9.35528e-12 9.89611e-11)
(-1.69504e-10 -1.99105e-11 6.93689e-11)
(-1.80043e-10 -6.15732e-11 2.76329e-11)
(-1.38528e-10 -1.31825e-10 1.39659e-10)
(-2.08262e-10 -1.16861e-10 7.54247e-11)
(-1.01441e-10 -1.54809e-11 2.13002e-12)
(-3.81783e-10 -7.65346e-10 4.96477e-10)
(-1.44286e-10 -2.28992e-10 -4.79135e-11)
(1.0578e-10 -3.79901e-10 1.08382e-10)
(-1.07383e-10 -7.88483e-10 -1.7237e-10)
(-8.15976e-12 -6.56e-10 1.8149e-11)
(9.80271e-11 -3.77979e-10 1.31692e-10)
(-1.4461e-10 -9.5552e-13 1.08583e-10)
(-1.68351e-10 -1.22838e-11 1.07867e-10)
(-7.71515e-11 5.83769e-14 1.20119e-10)
(-1.68813e-10 -4.23888e-11 1.20785e-10)
(-1.42638e-10 -1.01069e-10 1.24348e-10)
(-1.39453e-10 -6.01981e-11 3.06218e-11)
(-7.61648e-11 -2.02068e-10 1.81912e-10)
(-2.44786e-10 -2.18449e-09 -4.01363e-10)
(-8.14476e-11 -8.03234e-10 -1.22026e-10)
(-6.68532e-11 -3.88265e-12 1.31302e-10)
(1.05606e-10 -9.99698e-10 -1.05445e-10)
(-5.37769e-10 -2.44567e-09 -1.08485e-10)
(-1.84801e-10 -1.49505e-09 -1.48783e-10)
(-7.40711e-10 -1.63939e-09 6.90211e-12)
(-7.38411e-10 -1.78673e-09 1.22009e-11)
(-1.70621e-12 2.21156e-11 -3.55618e-11)
(-1.32245e-09 -1.69374e-09 3.66389e-10)
(-1.00367e-09 -1.69177e-09 7.60688e-10)
(-6.77136e-10 -1.90016e-09 3.27855e-10)
(-5.01976e-10 -1.36446e-09 6.62338e-11)
(-1.24027e-09 -1.72853e-09 1.16694e-09)
(-5.90184e-10 -7.69602e-10 3.92552e-10)
(-1.34307e-09 -1.80565e-09 6.22915e-10)
(-1.59882e-10 -1.36753e-09 2.32847e-10)
(-4.3477e-11 -8.14939e-10 5.94689e-11)
(-1.6888e-10 -1.74235e-09 3.67561e-10)
(-8.94912e-11 -1.15658e-09 2.19028e-11)
(-8.18114e-10 -1.26848e-09 3.97066e-10)
(-9.25207e-10 -1.81346e-09 5.6172e-10)
(-7.53975e-10 -1.38032e-09 4.20747e-10)
(-2.22198e-10 1.32478e-10 4.06664e-10)
(-1.3101e-11 -1.93468e-11 6.328e-12)
(-2.47132e-10 -6.64381e-12 5.08232e-10)
(-2.15784e-10 -2.00462e-09 -4.05616e-10)
(-4.89313e-10 -1.75868e-09 2.50031e-11)
(-1.26221e-10 -4.11103e-11 4.16156e-10)
(3.03083e-10 -7.99071e-11 -2.81871e-11)
(-4.68948e-10 -1.74171e-09 4.87304e-11)
(-5.68841e-10 -1.17048e-09 4.92691e-10)
(2.97084e-10 1.33134e-10 3.16584e-10)
(2.24552e-10 -1.05765e-10 -2.43119e-11)
(2.11235e-10 -8.01892e-11 -2.87391e-11)
(1.08187e-11 3.1539e-12 -7.83123e-12)
(-9.47612e-11 -6.91465e-10 6.08574e-11)
(1.41682e-10 -7.80025e-11 -5.42319e-11)
(-3.69083e-10 -6.97682e-11 6.5928e-10)
(-8.25376e-11 2.34711e-11 -7.13388e-11)
(6.63447e-11 2.3758e-11 3.81156e-11)
(-1.68181e-10 -1.76869e-10 7.16847e-11)
(-1.63532e-10 -1.74317e-10 6.74097e-11)
(-6.12356e-11 1.9689e-12 1.27582e-10)
(8.02522e-12 4.73345e-13 -1.9268e-11)
(2.30401e-13 1.40105e-12 -1.32704e-12)
(2.68525e-10 -5.76506e-11 3.0712e-10)
(5.3022e-11 1.43294e-12 7.65185e-11)
(4.27434e-12 -5.24553e-11 -1.06583e-10)
(4.44906e-12 7.01353e-12 3.62662e-11)
(1.26065e-11 3.28709e-12 -5.10414e-12)
(5.80775e-11 -7.33738e-12 4.23073e-11)
(2.13959e-10 -6.91319e-11 2.12949e-10)
(1.94937e-10 -3.76734e-11 3.15574e-10)
(-1.05677e-10 2.59922e-11 1.18237e-10)
(1.85566e-11 3.02367e-12 -3.88126e-11)
(-2.64251e-11 -1.17041e-11 -1.0458e-11)
(-1.57966e-11 -1.24283e-11 -1.72536e-12)
(-4.44294e-11 -1.62035e-10 3.49329e-10)
(3.09344e-10 -1.18055e-10 -9.64256e-11)
(1.60203e-10 -7.45125e-11 -3.04457e-11)
(-1.9018e-10 -6.33498e-11 3.83219e-10)
(1.26618e-11 1.51774e-12 -7.30423e-12)
(-2.2195e-11 -6.00558e-12 -9.07412e-12)
(-4.50966e-11 -4.65951e-12 -2.66839e-11)
(6.09664e-11 5.60532e-11 1.18447e-10)
(-6.24599e-11 -3.05976e-10 2.30641e-10)
(6.05488e-11 9.49443e-11 1.47591e-10)
(-2.02469e-11 -4.23689e-11 1.18377e-10)
(-9.71181e-10 -2.32693e-09 6.13833e-11)
(4.41545e-11 2.33084e-11 6.95636e-11)
(7.0456e-11 1.05607e-10 2.90392e-10)
(1.85386e-11 9.88875e-11 2.90719e-10)
(7.03563e-11 -3.05235e-11 -5.00006e-11)
(1.6916e-11 -2.74752e-12 -9.59766e-12)
(4.83075e-12 4.24916e-13 -4.38831e-12)
(7.36605e-13 1.27638e-12 -1.69999e-12)
(-1.70649e-10 3.66238e-13 4.68719e-10)
(-1.53963e-10 3.76297e-11 4.42507e-10)
(-1.62066e-10 6.6441e-11 4.62582e-10)
(-3.08507e-12 3.06136e-13 2.10454e-12)
(-6.8369e-12 2.34702e-12 1.2337e-12)
(-9.06457e-12 2.41829e-12 9.4803e-13)
(-8.55191e-12 2.45516e-12 1.05723e-12)
(-1.20221e-10 9.89186e-12 3.69898e-10)
(-3.92971e-12 1.15136e-12 8.48532e-13)
(5.63956e-11 -7.26202e-12 4.10694e-11)
(-1.45583e-10 3.69795e-11 4.08117e-10)
(6.31454e-11 -8.74777e-12 4.52655e-11)
(6.90379e-11 -1.17471e-11 5.07412e-11)
(-4.89182e-10 -8.99911e-12 -1.08135e-10)
(-5.62927e-11 2.6967e-11 2.31453e-10)
(-5.43735e-11 2.54694e-11 2.10433e-10)
(-6.31254e-12 -5.26858e-13 3.51701e-11)
(-1.23486e-10 -1.68556e-11 -4.0205e-11)
(-1.34989e-10 -2.72117e-12 -5.81772e-11)
(1.04306e-10 -1.13415e-11 -2.72378e-11)
(-8.72919e-11 2.17742e-11 -7.49686e-11)
(-2.50207e-10 1.93765e-11 2.44348e-10)
(-4.58422e-11 -5.74555e-12 -2.33724e-11)
(1.66251e-11 -8.31222e-12 1.71605e-11)
(-2.85246e-11 -1.44134e-11 -1.34255e-11)
(-1.76383e-11 -1.43631e-11 -4.80722e-12)
(5.9147e-11 6.24331e-11 1.15739e-10)
(5.82402e-11 7.39125e-11 1.22248e-10)
(-3.20113e-11 -1.30981e-10 1.87609e-10)
(-9.18017e-11 -1.62856e-10 2.16814e-10)
(-2.87513e-11 -9.95681e-11 2.69321e-11)
(-6.25446e-11 -3.45984e-10 3.82881e-11)
(-4.72536e-11 -1.37645e-10 1.504e-11)
(-1.326e-10 -5.82274e-10 2.59383e-10)
(-1.76435e-11 -9.17551e-12 -5.44338e-12)
(-1.24324e-11 -9.13511e-12 -3.14441e-12)
(4.54855e-11 4.22607e-11 1.05123e-10)
(4.21659e-11 6.51313e-11 1.47289e-10)
(4.34043e-11 8.71839e-12 8.0111e-11)
(1.07755e-10 -2.25388e-11 4.21733e-10)
(8.32632e-11 8.19645e-11 3.42904e-10)
(5.68183e-11 8.3389e-11 2.2112e-10)
(3.28218e-11 3.87593e-11 1.31607e-10)
(4.62741e-11 2.79405e-11 7.79255e-11)
(4.20441e-11 7.45132e-11 1.34373e-10)
(2.1966e-10 6.56366e-11 3.44333e-10)
(1.52408e-10 9.34112e-11 3.73481e-10)
(3.77261e-11 9.73868e-11 2.39427e-10)
(4.44297e-11 4.99676e-11 9.39071e-11)
(2.11856e-10 9.138e-11 3.58231e-10)
(1.77981e-11 1.05991e-10 1.99835e-10)
(4.25381e-11 -1.086e-12 7.19835e-11)
(1.76264e-10 -4.77097e-11 2.93768e-10)
(1.96037e-10 8.01294e-11 3.31447e-10)
(9.43771e-11 7.57541e-11 3.09447e-10)
(3.61336e-11 -2.7235e-12 9.99192e-11)
(3.88834e-11 7.59804e-12 5.7089e-11)
(4.14801e-11 2.25649e-11 6.44285e-11)
(1.94757e-10 7.55627e-11 2.96057e-10)
(7.86973e-12 1.077e-10 1.65403e-10)
(3.26289e-11 -2.62434e-12 1.11232e-10)
(2.14466e-10 -7.3463e-12 3.70486e-10)
(2.63088e-11 9.0899e-11 2.70074e-10)
(2.83633e-11 -6.35779e-13 1.11206e-10)
(3.35786e-11 -4.18684e-12 6.2368e-11)
(2.01558e-10 -4.06831e-11 3.16884e-10)
(4.08801e-11 1.57838e-11 6.11436e-11)
(1.60475e-10 2.42748e-11 2.25024e-10)
(1.39325e-11 9.74706e-11 1.38706e-10)
(4.93658e-11 6.51635e-11 3.1676e-10)
(-1.74626e-11 7.56177e-11 2.55176e-10)
(-3.24857e-11 1.02407e-10 2.0828e-10)
(2.32932e-11 9.67848e-11 2.75733e-10)
(2.70213e-11 1.18317e-12 1.23492e-10)
(4.75947e-11 3.48465e-11 8.39674e-11)
(2.08289e-10 7.53729e-11 2.78412e-10)
(5.25395e-11 4.98363e-11 3.12309e-10)
(-2.05661e-11 9.51768e-11 1.61401e-10)
(-8.78842e-12 7.57501e-11 2.17369e-10)
(2.25694e-11 5.02808e-12 1.24353e-10)
(1.05295e-10 9.14392e-11 3.29891e-10)
(3.60699e-11 -4.40739e-12 6.42717e-11)
(2.17704e-10 -2.48046e-12 3.8202e-10)
(2.3003e-10 -5.64817e-11 3.66742e-10)
(1.87084e-10 2.84043e-11 2.63648e-10)
(5.60836e-11 5.93804e-11 1.1891e-10)
(2.33495e-10 7.84898e-11 3.00484e-10)
(6.19675e-11 2.92032e-11 3.15744e-10)
(-1.64993e-11 8.01797e-11 2.14019e-10)
(2.71968e-11 9.52984e-12 1.3552e-10)
(3.57098e-11 3.15328e-12 1.13407e-10)
(4.70949e-11 -5.92887e-12 7.23539e-11)
(7.12327e-11 2.52368e-11 1.09364e-10)
(8.60322e-11 3.91093e-11 4.02098e-10)
(-8.38404e-12 8.08238e-11 1.26386e-10)
(-2.12294e-11 5.25857e-11 1.67514e-10)
(-7.37306e-12 3.38168e-11 1.57328e-10)
(1.13184e-11 2.25718e-11 1.46858e-10)
(2.83817e-11 1.43904e-11 1.39203e-10)
(4.25475e-11 7.88073e-12 1.24846e-10)
(2.86224e-10 -4.98587e-11 7.74945e-10)
(9.93852e-11 5.45594e-11 1.66478e-10)
(9.17213e-11 -1.85409e-10 -1.39619e-10)
(2.07914e-11 7.51177e-11 1.29256e-10)
(-6.42633e-12 3.42139e-11 1.43868e-10)
(1.31042e-11 2.43053e-11 1.42234e-10)
(3.56307e-11 1.70876e-11 1.3725e-10)
(4.89603e-11 1.20595e-11 1.31872e-10)
(-7.73839e-12 1.219e-10 2.06217e-10)
(6.32475e-11 -2.06268e-12 1.05028e-10)
(9.7721e-11 3.1082e-12 1.32973e-10)
(4.85141e-10 -1.90898e-10 -1.1525e-10)
(2.06157e-10 5.97256e-11 2.36436e-10)
(4.38757e-10 -1.78874e-10 -8.77949e-11)
(3.94477e-10 -1.62222e-10 -8.48763e-11)
(3.67982e-10 -1.72499e-10 -1.37832e-10)
(-3.31272e-11 1.97451e-12 1.00321e-11)
(-2.09201e-11 1.76887e-11 4.34491e-11)
(1.95598e-11 2.40971e-11 1.24789e-10)
(4.05305e-11 1.90418e-11 1.31745e-10)
(3.60245e-10 -1.64176e-10 -7.51345e-11)
(8.63759e-11 5.6561e-11 1.49702e-10)
(2.02287e-10 -1.80702e-10 -2.00792e-10)
(1.30448e-10 -1.60838e-10 -2.15484e-10)
(6.81302e-11 -1.32353e-10 -2.0338e-10)
(2.19944e-11 -8.35515e-11 -1.52944e-10)
(7.96704e-13 -4.10641e-11 -9.21002e-11)
(-6.03806e-12 -1.13572e-11 -2.89048e-11)
(-4.35609e-12 4.62933e-12 2.11982e-11)
(7.71878e-12 1.84603e-11 4.75287e-11)
(-2.48744e-11 5.63192e-11 7.35132e-11)
(1.10926e-10 5.78198e-13 1.38884e-10)
(2.09829e-10 6.40491e-11 2.19259e-10)
(1.3151e-10 4.35983e-11 1.67654e-10)
(1.00354e-11 4.68154e-12 2.49489e-11)
(1.60072e-10 1.95433e-11 1.49013e-10)
(3.26582e-10 -5.72892e-11 -2.95273e-10)
(3.45527e-10 -8.29053e-11 -1.56197e-10)
(2.01083e-10 4.74894e-11 2.09309e-10)
(4.79383e-11 5.15771e-12 6.34141e-11)
(1.82057e-10 -9.13824e-11 -8.39293e-11)
(2.89578e-11 -6.41517e-12 1.31637e-11)
(1.30501e-10 1.08032e-11 1.3115e-10)
(1.25017e-10 -3.51412e-11 -2.41601e-10)
(1.78463e-10 3.81073e-11 1.63121e-10)
(2.03261e-10 4.67991e-11 1.92841e-10)
(7.49357e-11 4.64634e-12 8.33069e-11)
(1.41621e-10 -7.67008e-11 -1.09268e-10)
(1.22607e-10 -6.976e-11 -1.23157e-10)
(9.77543e-11 -5.98879e-11 -1.31505e-10)
(1.46672e-10 1.74055e-11 1.39178e-10)
(1.09897e-10 -3.7174e-11 -1.79532e-10)
(1.96083e-10 -2.87787e-11 -1.53304e-10)
(9.91814e-11 2.5571e-12 9.80578e-11)
(7.85454e-11 -3.77694e-11 -1.0029e-10)
(6.36187e-11 -2.75479e-11 -9.554e-11)
(7.1468e-11 -1.63002e-11 1.97166e-11)
(8.07555e-11 -3.11505e-11 -1.24059e-10)
(1.66575e-10 2.74762e-11 1.4517e-10)
(1.46255e-10 -3.04919e-11 -8.26377e-11)
(1.8458e-10 7.75574e-12 1.70766e-10)
(1.01562e-10 -1.62409e-13 9.42624e-11)
(1.24099e-10 1.37274e-12 1.13558e-10)
(5.45689e-11 -1.50032e-11 -7.39652e-11)
(9.20431e-11 -1.12158e-11 5.02217e-11)
(1.66281e-10 2.14809e-11 1.35116e-10)
(4.77607e-11 -3.37079e-11 -6.88402e-11)
(1.05012e-10 -2.91497e-11 -6.95617e-11)
(2.08837e-10 3.48802e-12 1.84556e-10)
(4.24236e-11 -6.28661e-12 -1.09449e-12)
(7.49126e-11 3.16104e-12 3.14542e-11)
(1.14357e-10 -6.13062e-13 1.00845e-10)
(4.38148e-11 -6.2701e-12 -5.35404e-11)
(1.11168e-10 -1.02967e-11 6.70175e-11)
(1.82691e-10 2.14018e-11 1.50606e-10)
(3.85625e-11 -2.4954e-11 -3.10636e-11)
(6.79396e-11 -2.14136e-11 -5.8298e-12)
(7.80097e-11 -2.95469e-11 -5.9027e-11)
(6.5255e-11 -2.7892e-11 -6.2716e-11)
(2.36235e-10 4.09577e-11 2.20486e-10)
(2.20206e-10 7.22297e-13 1.90144e-10)
(2.46505e-11 -1.49566e-12 -1.18902e-11)
(6.24558e-11 -1.09706e-11 1.2206e-11)
(7.35918e-11 2.7886e-12 3.6143e-11)
(7.52474e-11 -2.48532e-13 4.73654e-11)
(1.2481e-10 -2.34361e-12 1.05714e-10)
(1.23876e-10 -1.01638e-11 7.76073e-11)
(8.27681e-11 -2.39034e-11 3.1604e-11)
(4.64405e-11 -2.47735e-11 -4.33669e-11)
(3.93109e-11 -2.42955e-11 -4.15847e-11)
(2.04603e-10 4.3408e-11 1.77442e-10)
(2.50247e-10 4.5035e-11 2.29464e-10)
(2.38345e-10 -2.31364e-12 2.02546e-10)
(1.82026e-11 1.05972e-12 -1.41151e-11)
(2.3434e-11 -4.39671e-12 -1.9271e-12)
(7.27885e-11 -6.25532e-13 4.78898e-11)
(7.97424e-11 -1.28141e-12 5.84703e-11)
(1.40694e-10 -3.70929e-12 1.12316e-10)
(2.72933e-11 4.07567e-13 -3.01053e-11)
(1.39643e-10 -1.25372e-11 8.45346e-11)
(2.09515e-10 2.20258e-11 1.55199e-10)
(8.455e-11 -1.60898e-11 4.42234e-11)
(2.01676e-10 3.54028e-11 1.6107e-10)
(1.55556e-11 -1.60013e-11 -2.00689e-11)
(1.41523e-11 -1.21086e-11 -1.39081e-11)
(2.20693e-10 4.53761e-11 1.89451e-10)
(-2.64396e-10 -7.63891e-11 5.11734e-10)
(-2.57446e-10 -7.87621e-11 4.77906e-10)
(2.65952e-10 1.70633e-11 2.37731e-10)
(1.0235e-11 2.84876e-12 -1.16204e-11)
(7.59343e-11 -2.39359e-12 5.83505e-11)
(8.983e-11 -1.98918e-12 7.02842e-11)
(1.00661e-10 -1.92571e-12 7.82314e-11)
(1.59807e-10 -6.18158e-12 1.22838e-10)
(1.62168e-11 1.27213e-12 -1.86328e-11)
(1.48263e-10 -1.40707e-11 8.76577e-11)
(2.08556e-10 2.2639e-11 1.51362e-10)
(2.26763e-10 4.21238e-11 1.83029e-10)
(-2.47762e-10 -7.40968e-11 4.87299e-10)
(2.49587e-10 4.98705e-11 2.20318e-10)
(2.80928e-10 1.85771e-11 2.48718e-10)
(-2.23055e-10 -4.64005e-11 3.90845e-10)
(2.62945e-12 3.4843e-12 -6.52844e-12)
(8.44144e-11 -3.0846e-12 6.72844e-11)
(9.53364e-11 -2.30924e-12 7.45837e-11)
(1.16219e-10 -1.11711e-12 8.92775e-11)
(1.60362e-10 -3.83908e-12 1.17121e-10)
(1.76156e-10 -7.13008e-12 1.28291e-10)
(-2.11187e-10 -8.40779e-12 4.62483e-10)
(7.91013e-12 1.65231e-12 -7.49931e-12)
(1.58101e-10 -1.65054e-11 9.05596e-11)
(2.36945e-10 2.96666e-11 1.65107e-10)
(-1.59013e-10 -6.50205e-11 4.23429e-10)
(-1.94033e-12 -3.12956e-12 -2.99779e-12)
(-2.36027e-12 -9.50617e-13 -7.74244e-13)
(1.18475e-12 2.45403e-12 2.69371e-12)
(2.07222e-11 5.62635e-12 1.02604e-11)
(2.49698e-10 5.02105e-11 2.22346e-10)
(-2.22817e-10 -8.32379e-11 4.37065e-10)
(-2.2964e-10 -7.56257e-11 4.14989e-10)
(2.83232e-10 1.39586e-11 2.46177e-10)
(-1.08724e-12 -1.68149e-12 2.42531e-12)
(5.58763e-11 -3.32459e-12 3.82376e-11)
(-1.95737e-10 -1.48027e-11 3.59411e-10)
(-2.12928e-12 3.86348e-12 -2.82741e-12)
(1.07162e-10 -1.82177e-12 8.31607e-11)
(1.21842e-10 -7.22566e-13 9.06038e-11)
(1.64293e-10 -4.3965e-12 1.14798e-10)
(1.81486e-10 -9.12766e-12 1.28045e-10)
(-2.09816e-10 8.93143e-12 4.52022e-10)
(-2.09888e-10 9.79543e-12 4.69514e-10)
(-2.33079e-10 1.73616e-11 5.13535e-10)
(-2.71904e-10 -2.07419e-12 4.73555e-10)
(1.70807e-10 -1.97551e-11 9.09389e-11)
(2.38228e-10 2.63381e-11 1.64212e-10)
(-1.81039e-10 -6.78087e-11 4.12456e-10)
(-1.46068e-10 -3.399e-11 5.40766e-10)
(3.2917e-13 -2.43326e-12 -2.00509e-12)
(-2.86067e-12 -1.26939e-12 -7.99762e-13)
(-5.59934e-12 -3.23254e-13 -9.28434e-14)
(-7.64656e-12 5.97518e-13 3.95577e-13)
(-8.45083e-12 1.55198e-12 7.51565e-13)
(-7.07039e-12 2.41654e-12 1.05975e-12)
(3.03408e-12 3.5684e-12 1.91886e-12)
(-3.51315e-12 9.18592e-14 5.31023e-13)
(3.90019e-11 -7.80433e-12 1.20536e-11)
(2.96181e-10 1.3171e-11 2.57977e-10)
(5.88389e-11 -5.1669e-12 4.55479e-11)
(1.15174e-10 -1.66373e-12 8.71556e-11)
(1.34261e-10 5.61725e-13 9.65913e-11)
(1.73795e-10 -5.67836e-12 1.20233e-10)
(1.96119e-10 -9.71948e-12 1.33887e-10)
(-1.95584e-10 1.46652e-11 4.35221e-10)
(-2.06872e-10 2.4368e-11 4.82113e-10)
(-2.41926e-10 2.82999e-11 5.43127e-10)
(-2.84841e-10 2.66726e-11 5.49748e-10)
(-2.9207e-10 1.87102e-11 6.65358e-10)
(-3.34716e-10 -4.396e-11 5.32456e-10)
(-1.26212e-10 -2.78605e-11 5.05833e-10)
(-2.11298e-10 -6.43937e-11 3.99058e-10)
(-2.08778e-10 3.97437e-11 6.04825e-10)
(-1.99509e-10 -5.82108e-11 3.38367e-10)
(2.99719e-10 1.05142e-11 2.58179e-10)
(-3.12913e-12 1.62124e-12 6.70008e-13)
(6.40045e-11 -6.87352e-12 5.1947e-11)
(-1.75176e-10 -1.18181e-11 3.22411e-10)
(-2.37861e-10 8.7374e-11 5.32836e-10)
(1.26299e-10 5.73827e-13 8.99998e-11)
(1.42313e-10 9.94728e-13 9.99859e-11)
(1.8326e-10 -6.12992e-12 1.22656e-10)
(2.08636e-10 -1.35287e-11 1.36917e-10)
(-1.8161e-10 1.32441e-11 3.89217e-10)
(-1.91648e-10 2.4374e-11 4.42999e-10)
(-2.47333e-10 4.43627e-11 5.55353e-10)
(-2.5592e-10 3.95498e-11 5.80209e-10)
(-2.24316e-10 2.66756e-11 5.78079e-10)
(-1.49367e-10 -5.81175e-11 3.42952e-10)
(-1.09382e-10 -1.19372e-11 4.56954e-10)
(-1.50907e-10 3.92952e-11 5.13356e-10)
(-1.95516e-10 -6.85555e-11 3.63226e-10)
(3.97667e-11 -3.85479e-12 2.85178e-11)
(4.71546e-11 -5.6104e-12 3.48197e-11)
(3.09692e-10 6.95558e-12 2.64745e-10)
(7.72436e-11 -6.30141e-12 6.35263e-11)
(1.38419e-10 9.62571e-13 9.6453e-11)
(1.56781e-10 3.17446e-12 1.03477e-10)
(1.9867e-10 -8.56425e-12 1.2485e-10)
(2.28209e-10 -1.57475e-11 1.41452e-10)
(-1.6995e-10 1.78415e-11 3.92484e-10)
(-2.26621e-10 4.49068e-11 5.37126e-10)
(-2.21589e-10 4.76775e-11 5.44257e-10)
(1.76412e-10 -2.94429e-11 8.49885e-11)
(-1.6506e-10 -5.02859e-11 3.27796e-10)
(-1.00241e-10 1.57819e-12 4.29218e-10)
(-1.80846e-10 -5.97588e-11 3.40934e-10)
(5.34348e-11 -6.69342e-12 3.96434e-11)
(3.04373e-10 4.05145e-12 2.57057e-10)
(8.36654e-11 -7.47049e-12 6.68898e-11)
(-1.48971e-10 -9.26759e-12 2.78369e-10)
(1.48959e-10 4.10194e-12 9.9543e-11)
(1.63931e-10 4.4621e-12 1.03938e-10)
(1.78047e-10 3.42674e-12 1.07774e-10)
(2.1221e-10 -9.5264e-12 1.23652e-10)
(2.39934e-10 -2.00363e-11 1.37708e-10)
(-1.58173e-10 1.55565e-11 3.44465e-10)
(-1.9936e-10 4.8092e-11 5.06361e-10)
(-2.0602e-10 5.10638e-11 5.26506e-10)
(1.83947e-10 -3.37989e-11 8.44017e-11)
(-1.72238e-10 -4.43822e-11 3.14699e-10)
(-9.0356e-11 1.55623e-11 4.12707e-10)
(-1.81878e-10 -5.04581e-11 3.23666e-10)
(-1.75491e-10 4.87323e-11 5.23735e-10)
(2.96553e-10 -9.69111e-13 2.50487e-10)
(-1.52373e-10 -2.85118e-11 2.49435e-10)
(-1.90557e-10 3.36607e-11 5.25274e-10)
(9.0368e-11 -5.89593e-12 7.18379e-11)
(-1.80378e-10 3.35776e-11 4.94364e-10)
(1.78816e-10 6.67665e-12 1.07406e-10)
(1.91311e-10 5.61844e-12 1.1e-10)
(2.29881e-10 -1.1871e-11 1.25891e-10)
(2.6161e-10 -2.18615e-11 1.43859e-10)
(-1.44237e-10 2.32617e-11 3.41113e-10)
(-1.81617e-10 4.53909e-11 4.71416e-10)
(-1.93022e-10 4.79977e-11 5.02e-10)
(1.90227e-10 -3.72274e-11 8.24688e-11)
(2.87828e-10 4.5361e-11 1.74355e-10)
(8.43711e-11 -1.22598e-11 5.68205e-11)
(-1.15886e-10 6.47394e-11 4.61747e-10)
(6.40739e-11 -8.14695e-12 4.5665e-11)
(-1.80202e-10 6.10295e-11 5.14625e-10)
(6.92557e-11 -8.30775e-12 5.48672e-11)
(2.7083e-10 -3.77232e-12 2.31443e-10)
(3.02787e-10 -3.62801e-11 2.13723e-10)
(1.84091e-10 9.8907e-12 1.03653e-10)
(2.02423e-10 6.65179e-12 1.09391e-10)
(2.45494e-10 -1.18205e-11 1.23958e-10)
(2.6595e-10 -2.427e-11 1.36085e-10)
(-1.32902e-10 1.80489e-11 2.98374e-10)
(-1.81777e-10 4.95468e-11 4.75701e-10)
(1.98492e-10 -4.239e-11 8.21897e-11)
(2.73066e-10 4.7478e-11 1.59889e-10)
(-8.04547e-11 -3.43345e-11 2.36407e-10)
(1.32192e-10 -2.68657e-11 7.16335e-11)
(-1.51723e-10 -3.3047e-11 2.5918e-10)
(8.75532e-11 -1.38045e-11 5.79074e-11)
(6.94077e-11 -9.63327e-12 4.93623e-11)
(6.44487e-11 -1.01428e-11 4.81837e-11)
(-1.41325e-10 -3.95994e-11 2.33873e-10)
(-1.34675e-10 -2.22238e-11 2.18638e-10)
(1.16832e-10 -2.42381e-12 8.63015e-11)
(2.79804e-10 -3.65326e-11 1.9971e-10)
(2.00234e-10 1.29378e-11 1.08223e-10)
(2.13133e-10 1.08401e-11 1.07629e-10)
(2.53221e-10 -1.32203e-11 1.18883e-10)
(2.75076e-10 -2.3597e-11 1.36233e-10)
(-1.26345e-10 2.12178e-11 2.94419e-10)
(2.40811e-10 5.12933e-11 1.34389e-10)
(-9.41863e-11 -3.2513e-11 2.1066e-10)
(-8.10386e-11 -3.13578e-11 2.11309e-10)
(-7.36424e-11 -2.7869e-11 2.07482e-10)
(1.34719e-10 -2.98678e-11 7.04589e-11)
(-1.53792e-10 -2.67433e-11 2.44754e-10)
(-5.5787e-11 2.90229e-11 3.09147e-10)
(9.45021e-11 -1.78879e-11 6.1346e-11)
(1.75774e-10 5.10234e-11 1.63814e-10)
(-1.52454e-10 -3.95765e-11 2.60586e-10)
(-1.43568e-10 -4.43768e-11 2.43192e-10)
(-1.26474e-10 1.16997e-10 4.71193e-10)
(1.40897e-10 4.00943e-12 1.56591e-10)
(-1.83728e-10 6.96178e-11 4.69692e-10)
(1.26037e-10 1.50236e-12 9.13978e-11)
(2.22789e-10 -3.25449e-11 1.70685e-10)
(2.04308e-10 1.63997e-11 1.04162e-10)
(2.25754e-10 1.29018e-11 1.06682e-10)
(2.65825e-10 -1.31354e-11 1.17066e-10)
(2.79987e-10 -2.54537e-11 1.33501e-10)
(-1.18165e-10 2.05201e-11 2.68754e-10)
(2.65149e-10 -1.42972e-11 9.15303e-11)
(2.51109e-10 2.61258e-12 9.85313e-11)
(2.06676e-10 4.97332e-11 1.2749e-10)
(-9.66413e-11 -2.57397e-11 1.83682e-10)
(-7.52201e-11 -2.78646e-11 1.81003e-10)
(-7.36641e-11 -2.55986e-11 1.78647e-10)
(-6.756e-11 -2.2453e-11 1.7773e-10)
(1.38149e-10 -3.39761e-11 6.95622e-11)
(-1.54292e-10 -1.86335e-11 2.29789e-10)
(1.95526e-10 4.80796e-11 2.02345e-10)
(-5.57493e-11 9.94736e-11 3.7376e-10)
(-1.29105e-10 -3.35611e-11 2.09118e-10)
(-1.64023e-10 1.10878e-10 4.77892e-10)
(9.42614e-11 -1.00206e-11 7.79267e-11)
(1.79059e-10 3.26275e-12 2.13513e-10)
(-1.27012e-10 -2.51795e-11 2.0075e-10)
(1.30797e-10 6.62859e-13 9.43347e-11)
(1.89714e-10 -2.25134e-11 1.87866e-10)
(-1.83326e-10 5.82966e-11 4.56134e-10)
(2.20601e-10 2.21457e-11 1.07889e-10)
(2.36636e-10 1.753e-11 1.05562e-10)
(2.74688e-10 -1.14458e-11 1.18178e-10)
(2.77557e-10 -2.34672e-11 1.37006e-10)
(-1.44114e-10 4.08039e-11 4.23252e-10)
(2.6666e-10 -1.67518e-11 9.25622e-11)
(2.46157e-10 1.4214e-12 9.69363e-11)
(1.98602e-10 4.08599e-11 1.45444e-10)
(-1.09436e-10 -1.62735e-11 1.61417e-10)
(-7.76268e-11 -2.27661e-11 1.55425e-10)
(-6.15483e-11 -1.70787e-11 1.51476e-10)
(1.47015e-10 -3.80806e-11 7.50047e-11)
(1.99786e-10 3.85564e-11 2.30236e-10)
(8.15531e-11 -1.97537e-11 6.73363e-11)
(1.90869e-10 2.61466e-11 2.30716e-10)
(2.31008e-10 2.49332e-11 1.09094e-10)
(2.54319e-10 2.17672e-11 1.16958e-10)
(2.62926e-10 -1.93335e-11 1.54713e-10)
(-9.9789e-11 1.88458e-11 2.30362e-10)
(-1.33888e-10 3.66367e-11 4.26187e-10)
(2.67526e-10 -1.54665e-11 9.99386e-11)
(2.39879e-10 2.08395e-12 1.14811e-10)
(1.97912e-10 3.38623e-11 1.57195e-10)
(-1.15237e-10 -6.58191e-12 1.40916e-10)
(-5.26577e-11 -1.33004e-11 1.2963e-10)
(1.51545e-10 -4.33101e-11 7.5041e-11)
(1.96814e-10 4.23011e-11 1.86722e-10)
(-4.37708e-12 4.54058e-11 1.90749e-10)
(-1.53436e-10 -1.78898e-11 2.24572e-10)
(9.08989e-11 -2.80179e-11 6.64351e-11)
(-1.47386e-10 -2.40055e-11 2.29119e-10)
(-5.28626e-11 2.28446e-10 4.12656e-10)
(1.6459e-10 1.57646e-11 1.07261e-10)
(2.51817e-10 2.92865e-11 1.28807e-10)
(2.77357e-10 2.3489e-11 1.46937e-10)
(2.4355e-10 -8.69119e-12 1.98196e-10)
(-1.28097e-10 3.0596e-11 4.31145e-10)
(2.63214e-10 -2.07216e-11 1.25877e-10)
(2.20193e-10 -6.88825e-12 1.24288e-10)
(1.95079e-10 7.44258e-12 1.31645e-10)
(1.82593e-10 3.12375e-11 1.51799e-10)
(-1.3149e-10 5.22981e-12 1.2286e-10)
(-2.80935e-11 -2.35743e-12 1.2026e-10)
(1.89922e-10 4.23661e-11 1.81214e-10)
(-1.53762e-10 5.45614e-12 1.73984e-10)
(8.72634e-11 1.49096e-10 2.29739e-10)
(-1.58588e-10 -2.20248e-11 2.36571e-10)
(-1.51179e-10 2.86618e-10 5.3949e-10)
(1.20691e-10 -1.08558e-11 1.04788e-10)
(-2.4751e-10 1.79634e-10 6.46355e-10)
(1.91307e-10 1.9458e-11 1.31249e-10)
(-1.38239e-10 -8.75742e-12 2.19114e-10)
(3.0079e-10 3.31439e-11 2.01283e-10)
(3.02197e-10 3.88956e-11 2.16115e-10)
(2.39784e-10 -1.1139e-12 2.27928e-10)
(-1.08853e-10 1.41525e-11 2.27428e-10)
(-1.10455e-10 1.34896e-11 4.47137e-10)
(2.64342e-10 -4.4564e-11 1.1939e-10)
(2.29476e-10 -2.23707e-11 1.16527e-10)
(1.88519e-10 -7.58894e-12 1.16286e-10)
(1.67055e-10 6.20847e-12 1.12947e-10)
(1.65219e-10 3.09542e-11 1.36862e-10)
(1.74874e-10 -7.55675e-12 2.51993e-10)
(-1.86609e-10 1.03421e-11 1.82453e-10)
(1.42924e-10 -5.63462e-11 8.24328e-11)
(1.79037e-10 3.47854e-10 -6.45318e-11)
(-3.07636e-10 2.74264e-10 -9.7458e-11)
(1.03148e-10 -3.49819e-11 9.68276e-11)