/*--------------------------------*- C++ -*----------------------------------*\
  =========                 |
  \\      /  F ield         | OpenFOAM: The Open Source CFD Toolbox
   \\    /   O peration     | Website:  https://openfoam.org
    \\  /    A nd           | Version:  7
     \\/     M anipulation  |
\*---------------------------------------------------------------------------*/
FoamFile
{
    version     2.0;
    format      ascii;
    class       volScalarField;
    location    "1.015";
    object      p;
}
// * * * * * * * * * * * * * * * * * * * * * * * * * * * * * * * * * * * * * //

dimensions      [0 2 -2 0 0 0 0];

internalField   nonuniform List<scalar> 
111696
(
0.00255119
0.00293386
0.00245382
0.00297652
0.0023764
0.00247399
0.00268518
0.00255839
0.00282535
0.00256395
0.00283597
0.00269748
0.00272489
0.00249017
0.0030605
0.00223116
0.00250885
0.00265286
0.00275639
0.00306715
0.00307722
0.00302992
0.00271305
0.0026737
0.00225203
0.00287852
0.0025334
0.00249879
0.00241972
0.00249251
0.00286402
0.00305439
0.00274492
0.00234034
0.00303533
0.00220879
0.00253831
0.00272641
0.0030705
0.0023012
0.00251298
0.00260584
0.00263103
0.00304122
0.00264465
0.00231445
0.00275385
0.00269225
0.00244242
0.00304339
0.00231685
0.00279455
0.00206369
0.00251524
0.00236099
0.00212743
0.00305068
0.00327642
0.00269758
0.00274025
0.00227245
0.00270671
0.00245848
0.00241491
0.00307176
0.00279659
0.00307802
0.00268097
0.00262377
0.00267881
0.00282385
0.00372798
0.00273022
0.00305905
0.00280063
0.00284248
0.00334936
0.00256735
0.00282167
0.00304453
0.00293378
0.00303796
0.002451
0.00279681
0.00295008
0.00318613
0.00250903
0.00293382
0.00226141
0.00235571
0.00333622
0.00256192
0.00330491
0.00265151
0.00273905
0.00328345
0.00265363
0.00307304
0.00306497
0.00315508
0.00299655
0.00214024
0.00290899
0.00303989
0.00279921
0.0024973
0.00240025
0.00249389
0.00269176
0.00263623
0.00271342
0.00251853
0.00302606
0.0029398
0.00325466
0.00228107
0.00254508
0.00326569
0.00264585
0.00280904
0.00270109
0.00279295
0.00240138
0.00295964
0.00270337
0.00240368
0.00241108
0.00236401
0.00263703
0.00247465
0.00236033
0.00335116
0.00288702
0.00268836
0.00287
0.00300298
0.00223751
0.00251089
0.00285416
0.00291474
0.00267308
0.00247496
0.00262583
0.00329457
0.00285912
0.00255373
0.00281556
0.00230491
0.00262953
0.00245693
0.0028119
0.00262
0.00267648
0.00225969
0.00284694
0.0026581
0.00305912
0.00239298
0.00276519
0.00372371
0.00257855
0.00281901
0.00208212
0.00237798
0.00247111
0.00210434
0.00298253
0.00291693
0.00305596
0.00267172
0.00271445
0.00301506
0.00216801
0.00226967
0.00253989
0.00288645
0.00258539
0.00249167
0.00215565
0.0026653
0.00315472
0.0027899
0.00289963
0.00298702
0.00235897
0.00220451
0.00307614
0.00231754
0.00302747
0.00218946
0.00246659
0.00225585
0.0028172
0.00287952
0.00248199
0.00268365
0.00237763
0.00299052
0.00271876
0.00432829
0.00299584
0.00253304
0.00251893
0.00286166
0.00225249
0.00263546
0.00259009
0.00275274
0.00276816
0.00282748
0.00292039
0.00230354
0.00266815
0.0032884
0.00220462
0.00325098
0.00282543
0.00301746
0.0030301
0.00213528
0.00245645
0.00253482
0.0029478
0.00286065
0.00263406
0.00282347
0.0027443
0.00244714
0.002973
0.00248678
0.00249458
0.00265724
0.00299567
0.0025859
0.00285407
0.00296796
0.00230042
0.00239258
0.00297761
0.00221662
0.00285201
0.00291605
0.00252104
0.00297075
0.00240461
0.00238371
0.00305842
0.00208633
0.0027617
0.00363313
0.00285184
0.00299881
0.00417599
0.00237718
0.00293582
0.00268541
0.00279527
0.00284666
0.0022795
0.00243679
0.00307767
0.00284233
0.00251786
0.00283576
0.00302789
0.00278681
0.00254235
0.00251548
0.00251662
0.00293992
0.00286992
0.00292302
0.00276518
0.00237926
0.00259133
0.00292825
0.00214827
0.00239163
0.00229667
0.00296054
0.00305161
0.00241465
0.00241851
0.00255483
0.00238753
0.00209888
0.00286415
0.00252165
0.00274967
0.00242292
0.00251118
0.00262147
0.00235547
0.00289259
0.00231485
0.00224824
0.00231189
0.00249953
0.00291627
0.00253333
0.00281884
0.0022815
0.00240127
0.00293447
0.00245252
0.00252096
0.00280388
0.00275615
0.00347568
0.00252884
0.0029134
0.00267292
0.00283196
0.00251378
0.00243514
0.00309184
0.00260559
0.00243102
0.00283242
0.00231849
0.00283814
0.00210588
0.00255879
0.00335029
0.00302984
0.00226024
0.00263967
0.00195911
0.00264396
0.00230912
0.00263314
0.00307779
0.00281506
0.00298012
0.00292431
0.00290148
0.00306472
0.00275638
0.0030384
0.00261378
0.00241148
0.00260352
0.00229179
0.00251592
0.00281896
0.00257663
0.00287414
0.0022498
0.00226109
0.00213191
0.0027686
0.00276512
0.00237156
0.0029229
0.00270773
0.00262277
0.00307678
0.00329205
0.00306096
0.0027434
0.0023769
0.00247103
0.00274053
0.00343044
0.00295731
0.00223673
0.00293445
0.00231849
0.00253201
0.00255085
0.00227158
0.00243823
0.00250306
0.00200789
0.00334749
0.00253247
0.0029192
0.00253369
0.00246467
0.00280715
0.00266769
0.00281798
0.00282202
0.00264278
0.00276099
0.0027808
0.00270708
0.00235556
0.00231842
0.00228929
0.00267653
0.0023968
0.00216776
0.00261716
0.00298462
0.00238669
0.00306436
0.00279607
0.00295567
0.00271866
0.00249045
0.0031027
0.00208874
0.00370616
0.00232909
0.00249136
0.00240692
0.00305328
0.00240445
0.00305898
0.00286089
0.00250324
0.00294905
0.00284126
0.00256234
0.00259403
0.0025358
0.00227295
0.0028649
0.00256249
0.00220811
0.00231757
0.00296111
0.00247352
0.00227278
0.00298452
0.00238442
0.00225027
0.00234187
0.00262022
0.00308053
0.00232924
0.00292897
0.00259577
0.0026725
0.00260999
0.0025014
0.00256914
0.00275684
0.00241116
0.0026786
0.00303336
0.00283244
0.00306911
0.00296765
0.00244619
0.00245107
0.0027632
0.00277841
0.00281769
0.002233
0.002994
0.00240855
0.00283875
0.00256414
0.00285019
0.00274195
0.00296002
0.0025118
0.00248623
0.00246158
0.00246767
0.00281735
0.00274216
0.00259756
0.00293468
0.00296793
0.00223647
0.00227827
0.00286093
0.0023447
0.00262985
0.00306582
0.00281716
0.00298528
0.0025368
0.00311163
0.00245768
0.00255911
0.00229364
0.00253066
0.00237711
0.00260594
0.00260747
0.00235289
0.00286367
0.00260338
0.00268232
0.00258755
0.00295157
0.00201039
0.00289065
0.00313134
0.00291808
0.00274043
0.00299851
0.00317219
0.00259445
0.00255463
0.00280745
0.0029821
0.0028622
0.00288204
0.00281999
0.00264496
0.00304499
0.0029465
0.00272977
0.00244692
0.00291598
0.00270856
0.00259458
0.00272929
0.00307755
0.00253109
0.00322169
0.00307064
0.00243268
0.00245863
0.00296271
0.00254741
0.00311134
0.00221743
0.00274969
0.00305568
0.00248732
0.00233485
0.00272888
0.00276307
0.00292876
0.00277163
0.00248842
0.00255862
0.00291457
0.00290408
0.00289651
0.00303195
0.00272997
0.0024891
0.00260458
0.00241254
0.00308941
0.00214049
0.00235015
0.0029631
0.00282414
0.00237591
0.00227501
0.002526
0.00276979
0.00254373
0.00256394
0.00255662
0.0021441
0.00275087
0.00247362
0.00312046
0.00228625
0.00267222
0.0026939
0.00312427
0.00246377
0.00227193
0.00261801
0.00301123
0.00213794
0.00278
0.00271412
0.00256043
0.00283327
0.00310756
0.00317156
0.00317468
0.0024369
0.00295177
0.0028455
0.0026045
0.0024289
0.00290567
0.0028647
0.0022175
0.00298198
0.00291252
0.00251871
0.00269352
0.00220251
0.00276633
0.00278216
0.0022707
0.00257309
0.00200114
0.00247162
0.00246059
0.00325262
0.00274761
0.00265875
0.00226867
0.00275358
0.00232773
0.00235319
0.00265791
0.00260497
0.00290899
0.00275392
0.00270291
0.00240079
0.00231529
0.00249924
0.00260392
0.00323441
0.00293937
0.00243676
0.00237709
0.00245538
0.00271237
0.00279587
0.00296059
0.00202726
0.00250323
0.00228306
0.00297569
0.00247648
0.00248558
0.00307294
0.00317656
0.00257957
0.00246681
0.00249618
0.00280139
0.00290507
0.00281397
0.00197769
0.00294332
0.00240473
0.00248236
0.00295509
0.00280572
0.00294333
0.00291776
0.00246335
0.00226184
0.00287103
0.00204249
0.00287144
0.00249612
0.00263588
0.00289269
0.00266549
0.00284109
0.00243212
0.00276968
0.00302296
0.00230718
0.00297509
0.00263134
0.0023489
0.00196739
0.00299853
0.00200085
0.00238087
0.00300917
0.00273863
0.00258537
0.00255682
0.00297258
0.00248165
0.00244151
0.00270684
0.00205019
0.00322978
0.00220628
0.00204825
0.00202568
0.00257995
0.00287169
0.00272796
0.00266357
0.00278375
0.00299356
0.00296749
0.00259832
0.00265613
0.00229782
0.00248879
0.0028241
0.00312938
0.00301314
0.0025933
0.00296113
0.00242746
0.00244197
0.00282333
0.00261209
0.0029639
0.00229839
0.00275907
0.00304788
0.003011
0.00250378
0.00270913
0.00276584
0.0034217
0.00250343
0.00308366
0.0026177
0.00256178
0.00262419
0.00219587
0.00279625
0.0029464
0.00218955
0.0028135
0.00295272
0.00298088
0.00240583
0.0026672
0.00239317
0.00230224
0.00248172
0.00282486
0.00275585
0.00265092
0.00232882
0.00269742
0.00297104
0.00273749
0.00271145
0.00276505
0.00232681
0.00235121
0.00298761
0.00263008
0.00283284
0.00271076
0.00321635
0.00273062
0.00267204
0.00273655
0.00298776
0.0026313
0.00251676
0.00252104
0.00293287
0.00287139
0.00215874
0.00322277
0.00307997
0.00273322
0.00278486
0.00263324
0.0025083
0.00237585
0.00247178
0.00315229
0.00294541
0.00287954
0.00266876
0.00233843
0.00246548
0.00274687
0.00294038
0.00266158
0.002438
0.00269008
0.00282937
0.00285648
0.00283584
0.00281482
0.00251022
0.00242253
0.00296516
0.00292648
0.00269413
0.00241446
0.00261035
0.00292976
0.00255077
0.00245098
0.00252532
0.00235421
0.00266202
0.00300365
0.00255429
0.0029503
0.00264566
0.00242131
0.00232779
0.00268141
0.00212941
0.00262916
0.00211132
0.00267635
0.0030151
0.00274986
0.00246162
0.00265821
0.00265036
0.00264756
0.00284634
0.00242034
0.00257346
0.00258298
0.00262266
0.0029042
0.00224191
0.00299206
0.00250303
0.00225699
0.00291792
0.00273715
0.00265037
0.00247489
0.00256083
0.00291328
0.00304458
0.00225362
0.00257804
0.00312866
0.00283025
0.00272369
0.00297866
0.0025085
0.00250579
0.00218413
0.00303945
0.0045098
0.00256941
0.00222252
0.00265382
0.00242007
0.0031914
0.00263908
0.0024834
0.00295179
0.00227872
0.0026016
0.0029265
0.00292088
0.00282364
0.00229262
0.00245678
0.00276054
0.00317404
0.00294163
0.00278241
0.00285719
0.0028928
0.00226259
0.00245459
0.00283554
0.00237131
0.00244897
0.00233534
0.00241274
0.00244264
0.00273364
0.00250121
0.00295847
0.00234481
0.00282157
0.00237347
0.00310429
0.00268399
0.0025365
0.00244501
0.00254557
0.00236966
0.00269553
0.00287278
0.00240697
0.0022441
0.00267708
0.00292333
0.00332338
0.00231673
0.00287121
0.00247692
0.00271059
0.0025995
0.00275565
0.00282064
0.00267941
0.00239027
0.00226079
0.00276758
0.00320454
0.0026959
0.00242365
0.00279504
0.00247048
0.00266573
0.0026339
0.00279943
0.00231017
0.0028909
0.0026038
0.00324812
0.00269983
0.00260576
0.00281165
0.00207349
0.00249619
0.00273462
0.00316098
0.0029203
0.00256013
0.00270596
0.00220568
0.00320944
0.00316544
0.00284447
0.00289636
0.00321105
0.00306267
0.00314766
0.00379445
0.00288964
0.00250696
0.00320465
0.00229818
0.00277807
0.00268424
0.00308162
0.00306073
0.00252133
0.00246838
0.00244052
0.00272097
0.00299063
0.00279176
0.0024002
0.00244185
0.002962
0.00219899
0.00292884
0.00220587
0.00279615
0.00212531
0.00239456
0.00297029
0.00249873
0.00262159
0.00239965
0.00245219
0.00330965
0.00236316
0.00318679
0.00268314
0.00240543
0.00350846
0.00251736
0.00279015
0.00250921
0.00319819
0.0024796
0.00264546
0.00226825
0.00228026
0.0026639
0.00289866
0.00259224
0.00256314
0.00267042
0.0030621
0.00249645
0.00282444
0.00306542
0.00261705
0.00240353
0.00262124
0.00332545
0.00275675
0.00272114
0.00295709
0.00307785
0.00261768
0.00267268
0.00285573
0.00310756
0.00319358
0.00299588
0.00238332
0.00266341
0.00244055
0.00218488
0.00237766
0.00243996
0.00254371
0.00238298
0.00248632
0.00262847
0.00265174
0.00241324
0.00238597
0.00267014
0.00281657
0.00278921
0.00248803
0.00310478
0.00422011
0.00284982
0.00246364
0.00269876
0.00231409
0.0020501
0.00243336
0.00259494
0.00222803
0.00234339
0.00298089
0.00282011
0.00272635
0.00298099
0.00273609
0.00291277
0.0025582
0.0028158
0.00274182
0.00251033
0.00240347
0.00281627
0.00274895
0.00278714
0.00253352
0.00326279
0.00252951
0.00263392
0.00325089
0.00253837
0.00237999
0.00258711
0.00281011
0.00295857
0.00289278
0.00301676
0.00309221
0.00278326
0.00288254
0.00264152
0.00244727
0.00298172
0.00227461
0.00292768
0.00311407
0.0024058
0.00270227
0.00292158
0.00237923
0.00312573
0.00292566
0.00381739
0.00293339
0.00312985
0.00318837
0.00273186
0.0029998
0.00225717
0.00246661
0.00268876
0.00288736
0.00299635
0.00257268
0.00290257
0.00273234
0.00246434
0.00310351
0.00269904
0.00242128
0.00264305
0.00287475
0.0027198
0.00248976
0.00283219
0.00247402
0.002633
0.00292531
0.00248994
0.00225835
0.0026814
0.00275952
0.00307134
0.00260587
0.00252986
0.0025968
0.0021737
0.00275004
0.00241079
0.00279241
0.00297997
0.00288554
0.00258937
0.00249861
0.00255077
0.00240392
0.00278937
0.00297364
0.00227313
0.00278986
0.00236787
0.0025239
0.00270925
0.00237229
0.00246038
0.00324377
0.00319497
0.00221554
0.00287347
0.00300585
0.00254931
0.00250416
0.00295803
0.00211876
0.00301281
0.00303437
0.00265539
0.00293381
0.00322491
0.00235275
0.00284326
0.00324155
0.00274206
0.00295292
0.00284335
0.00302097
0.00269149
0.00239572
0.00312169
0.00226029
0.0023365
0.00292789
0.00258877
0.00272482
0.00245624
0.00255333
0.00248471
0.00294437
0.00239521
0.00313736
0.00298172
0.00264876
0.0023778
0.00299128
0.00296666
0.00308328
0.00293344
0.00248802
0.00289218
0.00270631
0.00272376
0.00238223
0.00272468
0.00262338
0.00228214
0.00217581
0.00268581
0.00305068
0.00270385
0.00297229
0.00305376
0.00301106
0.00269563
0.00310505
0.00263345
0.0031023
0.00241654
0.00271217
0.00265295
0.00313258
0.00235828
0.00274587
0.00280314
0.0029475
0.00295676
0.00269901
0.00277549
0.00244617
0.00221992
0.0030691
0.00268731
0.00258542
0.00268544
0.00291044
0.00325306
0.00245542
0.0028102
0.00305214
0.0026051
0.00263859
0.00207383
0.00255382
0.00276152
0.00289249
0.00268419
0.00246761
0.00223937
0.00291847
0.00214608
0.0029372
0.0025062
0.00304002
0.00306223
0.00284239
0.00242163
0.0029713
0.00262683
0.0029007
0.00263709
0.00299009
0.00269685
0.002749
0.00264914
0.00247244
0.00254265
0.00255394
0.00251074
0.00246951
0.00268465
0.00282734
0.00291495
0.00244953
0.00203765
0.00304381
0.00284555
0.0021518
0.00257674
0.00322035
0.00272795
0.00268261
0.00264267
0.00219208
0.0027187
0.00336919
0.00222469
0.00254731
0.00274111
0.00247757
0.00248141
0.00280866
0.00227547
0.00249424
0.00251565
0.00310502
0.00273868
0.00267741
0.0023895
0.00233398
0.00214477
0.00245237
0.00358121
0.00323803
0.00272509
0.00325771
0.00266353
0.00266455
0.0026109
0.00296825
0.00256354
0.00246052
0.00263163
0.00273917
0.00286244
0.00236172
0.00263177
0.00297143
0.00266091
0.00310013
0.00262156
0.00281941
0.00241801
0.00253674
0.00330702
0.00274389
0.00257808
0.00326727
0.00211823
0.00219886
0.00248878
0.0027237
0.00239481
0.00259894
0.00280177
0.0023823
0.00221297
0.00308184
0.00244113
0.00232149
0.00259279
0.00238377
0.00265292
0.00238053
0.00278264
0.00289932
0.00255206
0.00337288
0.00267098
0.00323393
0.00250909
0.00246053
0.00245766
0.00236447
0.00243273
0.00285682
0.00285872
0.00300834
0.00295839
0.00275876
0.00304065
0.00253417
0.00282607
0.00293379
0.00270058
0.00244142
0.00267409
0.00327051
0.00256744
0.00212639
0.00246008
0.00281529
0.0026742
0.00287566
0.00279708
0.00265712
0.00247436
0.00323735
0.00281636
0.00367307
0.00207013
0.00230029
0.00249717
0.00310378
0.00259465
0.0029446
0.00225421
0.00281738
0.00268429
0.00252759
0.00203779
0.00273676
0.00229966
0.00270383
0.0022481
0.00274052
0.00280132
0.00296612
0.00275258
0.00270346
0.00297014
0.00200577
0.00313663
0.00265248
0.00297473
0.00251258
0.00261672
0.00290335
0.00237487
0.00259375
0.00246659
0.00197907
0.00259677
0.00244756
0.00216559
0.00273667
0.00245136
0.00273963
0.00277996
0.00267688
0.00253323
0.00269092
0.00252666
0.00308809
0.0019717
0.00255042
0.00333343
0.0029555
0.00271842
0.00243921
0.00205226
0.00250577
0.00277432
0.00240155
0.00323424
0.0027347
0.00258689
0.00264427
0.00273982
0.00284139
0.00242467
0.00308373
0.00284881
0.00242661
0.0030616
0.00221907
0.00287458
0.00229633
0.00225108
0.00289705
0.00281214
0.00270104
0.00263506
0.00243181
0.00321285
0.00322281
0.00295289
0.00252859
0.00254928
0.00253159
0.00294753
0.00231869
0.00289243
0.00308774
0.003109
0.00252102
0.00245191
0.00273973
0.00309082
0.00304274
0.00240898
0.00256801
0.00309987
0.00247305
0.00309128
0.0022941
0.00244827
0.00262782
0.00289109
0.00261626
0.00295212
0.00231354
0.00326207
0.00246132
0.00338193
0.00310402
0.00235545
0.00238004
0.00259414
0.00248112
0.00247659
0.00299336
0.00285222
0.00316136
0.00259703
0.00254228
0.00253725
0.00321078
0.00235371
0.00282888
0.0025352
0.00298656
0.00286386
0.00245366
0.00266404
0.00248364
0.00293755
0.00294844
0.00294188
0.00229611
0.0026956
0.00237759
0.00222242
0.0023105
0.00243307
0.00238279
0.00225536
0.00304824
0.00295365
0.00242488
0.00254143
0.00330325
0.00283725
0.00296024
0.00227938
0.00279196
0.00308039
0.0026337
0.00334775
0.00236866
0.00305983
0.00306747
0.00270817
0.00270841
0.00260498
0.0025333
0.0031621
0.00312858
0.00316324
0.00256544
0.00229319
0.00298978
0.00256968
0.00288104
0.00239833
0.00245164
0.00304646
0.0031068
0.00227146
0.00270661
0.00299619
0.00259274
0.00302325
0.00274331
0.00322777
0.0030941
0.00299833
0.00270965
0.00313652
0.00247427
0.00287742
0.00294877
0.00279918
0.00232892
0.00297028
0.00297468
0.00304573
0.00260589
0.00273885
0.00266659
0.00299589
0.00302294
0.00262382
0.00266786
0.00247977
0.00287323
0.00234094
0.0025819
0.00269598
0.00239901
0.0028355
0.00215931
0.00296247
0.00224046
0.00295426
0.00229624
0.00293342
0.00277684
0.00260845
0.00305493
0.00228128
0.00236569
0.00321262
0.00310538
0.0024094
0.00246781
0.00302224
0.0031189
0.00245955
0.00218463
0.00249067
0.00262353
0.00284392
0.00220694
0.00263606
0.00297994
0.0023756
0.002309
0.00214618
0.00242979
0.00248262
0.00305778
0.00244199
0.00244918
0.00300811
0.002494
0.0025125
0.00321237
0.00243449
0.00265797
0.00289865
0.00241414
0.00312881
0.00257153
0.00275492
0.00301522
0.00238966
0.00289948
0.00291575
0.00286063
0.00305632
0.00264062
0.00252189
0.00259962
0.00268722
0.00236191
0.0032826
0.00240365
0.00300209
0.00277713
0.00255565
0.00276843
0.00337569
0.00295163
0.00317555
0.00270488
0.00247931
0.00242848
0.00243934
0.00329828
0.00230357
0.00260565
0.00230508
0.00241624
0.00253677
0.00240631
0.00255635
0.00309006
0.00303695
0.00299467
0.00244965
0.00309868
0.00243803
0.00320117
0.00245151
0.00306418
0.00303657
0.0026318
0.00312985
0.0029831
0.00251362
0.00322766
0.00231035
0.00272522
0.00270882
0.00217339
0.00233991
0.00306065
0.00264336
0.00275506
0.00264045
0.00242608
0.00311091
0.00260839
0.00269606
0.00281603
0.00240585
0.00274982
0.00249019
0.00263505
0.00272807
0.00285241
0.00225816
0.0029653
0.00261671
0.00298018
0.00241478
0.00248753
0.00236711
0.00217873
0.0027573
0.00321003
0.00281343
0.00232783
0.00247198
0.00314682
0.00323696
0.00220332
0.00246974
0.00241867
0.00250106
0.00280627
0.00250932
0.00312054
0.00269297
0.00251535
0.00224604
0.00267553
0.00297948
0.00223033
0.00326262
0.00269942
0.00317111
0.00325541
0.00290922
0.00297237
0.00319889
0.00282728
0.00308227
0.00306493
0.0027182
0.00272331
0.00246669
0.00305466
0.0029235
0.00214071
0.00254375
0.00243648
0.00323314
0.00217625
0.00316229
0.00248164
0.00297602
0.00293526
0.00270695
0.00301274
0.00246447
0.00239286
0.00246015
0.00266612
0.00339255
0.00219806
0.0030535
0.00296852
0.00226159
0.0022205
0.00220701
0.00228776
0.00247918
0.0026513
0.00280705
0.00227615
0.00242739
0.00297898
0.00302384
0.00276145
0.00328905
0.0030353
0.00266043
0.00253547
0.00272914
0.00301827
0.00241135
0.00233211
0.0025569
0.00315278
0.00271806
0.0026358
0.00269128
0.00271017
0.00239874
0.00240574
0.00231165
0.00274
0.00308856
0.00238094
0.00264295
0.00229024
0.00255581
0.00271877
0.00297843
0.00273656
0.00220902
0.00311635
0.00292403
0.0026228
0.00296802
0.00216891
0.00240107
0.00260432
0.00277998
0.00259985
0.00272918
0.00244672
0.0025209
0.00270531
0.00279314
0.00252765
0.00276932
0.00291208
0.00240809
0.00310197
0.00254311
0.00238266
0.00286774
0.00254281
0.00325518
0.00327621
0.00319057
0.00332044
0.00253141
0.00266939
0.00292316
0.00263004
0.003003
0.00269097
0.00229571
0.00287435
0.00324041
0.00274169
0.00254275
0.00228085
0.00267426
0.00272311
0.00309931
0.00308885
0.00301329
0.00293198
0.0021908
0.00252929
0.00249745
0.00288605
0.00239004
0.00281427
0.00279801
0.00285047
0.00234441
0.00232392
0.00291817
0.00271808
0.00256824
0.00228881
0.00248811
0.00229538
0.00310836
0.00226435
0.00236302
0.00266407
0.00264537
0.0027927
0.00292433
0.00251013
0.00274164
0.00239057
0.0023848
0.00260174
0.00239889
0.00262142
0.00240204
0.00282974
0.00315847
0.00242497
0.00291331
0.00310405
0.00220608
0.00214737
0.00291912
0.00252757
0.00225809
0.00329768
0.00302244
0.00303961
0.00252815
0.00257935
0.00246018
0.00261161
0.00297201
0.00272266
0.00285972
0.00312825
0.00334144
0.00256356
0.00231226
0.002508
0.00245958
0.00223457
0.00287919
0.00246087
0.00311694
0.00278201
0.00281853
0.00274971
0.00219539
0.00272199
0.00316449
0.00215681
0.00298109
0.00331185
0.0028414
0.00245444
0.00267376
0.00289152
0.00304717
0.00332489
0.00296855
0.00279161
0.00229591
0.00223249
0.00281933
0.00268851
0.00232736
0.00233099
0.00242708
0.00242915
0.00219517
0.00272643
0.00283459
0.00233722
0.00293207
0.00269829
0.00267134
0.00332516
0.00245356
0.002373
0.00218946
0.00303692
0.00223208
0.00240888
0.00276062
0.00327667
0.00259516
0.00320642
0.00267145
0.00319711
0.00239352
0.00300253
0.00296891
0.00282212
0.00261909
0.00246925
0.00262867
0.00263512
0.00255332
0.00243696
0.00251144
0.00236845
0.00237923
0.00347304
0.00257764
0.00295837
0.00240071
0.00210219
0.00293005
0.00277684
0.00260752
0.00328838
0.00218379
0.00258955
0.00330269
0.00286107
0.00309047
0.00302978
0.0020339
0.00326635
0.00222398
0.00282279
0.00293849
0.0033585
0.00259449
0.00310914
0.00278121
0.0022485
0.00279878
0.00293097
0.00247629
0.00270349
0.00299837
0.00269507
0.00231414
0.00317719
0.00238514
0.00244436
0.00274082
0.00281056
0.00243391
0.00256975
0.00314554
0.00326273
0.00279058
0.00278558
0.00317666
0.00260854
0.00225093
0.00247865
0.00262563
0.00266319
0.00281085
0.00312456
0.00274884
0.002639
0.00220049
0.00278742
0.0031452
0.00222826
0.00258854
0.00226355
0.00298369
0.00299676
0.00243731
0.00272939
0.00240543
0.00279102
0.002707
0.0029921
0.00286128
0.00257944
0.0024374
0.00299929
0.00264242
0.00227165
0.00291201
0.00231516
0.00303337
0.00220069
0.00303256
0.00330566
0.00246373
0.00253935
0.00251222
0.00232482
0.00272182
0.00319978
0.00250665
0.00258712
0.00329203
0.00237913
0.0024257
0.00280845
0.00264326
0.00266627
0.00234733
0.0025021
0.00238985
0.00253014
0.00252256
0.00211337
0.00217267
0.00304839
0.00255075
0.00211613
0.00206215
0.00311919
0.003117
0.00233329
0.00225674
0.00259658
0.00252761
0.00268877
0.0024169
0.00301096
0.00261541
0.00296823
0.00289657
0.00262334
0.00280545
0.00265
0.00211576
0.00267199
0.00283583
0.00224921
0.00231623
0.00270899
0.00315316
0.0025944
0.00233437
0.00295218
0.00292413
0.00236147
0.00303367
0.00235478
0.00233369
0.00225545
0.00303964
0.0031245
0.00294812
0.0038637
0.00323462
0.00296841
0.00247507
0.0025352
0.00247025
0.00280497
0.00323145
0.00334138
0.00249545
0.00260055
0.00218338
0.00292755
0.00271519
0.00293729
0.00267383
0.00255869
0.00285493
0.0025001
0.00265723
0.00217473
0.0032463
0.00283012
0.00264171
0.00228895
0.00301798
0.0029657
0.00306137
0.00269494
0.00287729
0.00213788
0.00293291
0.00265929
0.00290774
0.00256841
0.00299911
0.0028274
0.00258774
0.0024439
0.00283814
0.00263348
0.00232299
0.00279816
0.00229327
0.00252607
0.0022545
0.00250735
0.00314145
0.00254413
0.00297281
0.00300209
0.00228158
0.00376151
0.00293783
0.00265752
0.00274391
0.00309583
0.0033891
0.0026864
0.00250343
0.00294206
0.0026242
0.00248032
0.00276707
0.00286896
0.00229142
0.00306539
0.00254872
0.00273805
0.00250034
0.00332449
0.00292734
0.00233917
0.00291037
0.00263144
0.00258022
0.0023967
0.00217329
0.00254199
0.00266844
0.00246405
0.00219599
0.00295725
0.00236074
0.00292704
0.00262852
0.00237156
0.0025888
0.00297717
0.00247986
0.00237604
0.00284257
0.00281813
0.00228105
0.00285415
0.00249871
0.0022655
0.00254996
0.00267338
0.00274582
0.00225322
0.00240211
0.00273406
0.00284621
0.00307846
0.00233505
0.00270294
0.00276884
0.00232499
0.00293069
0.00263336
0.00219746
0.00261644
0.0028756
0.00299823
0.00297374
0.0028645
0.00267008
0.00206696
0.00298361
0.00308019
0.00422984
0.00247182
0.00240525
0.0027854
0.00277541
0.00272136
0.00327138
0.00283814
0.00235512
0.00254788
0.00283416
0.00234
0.00295791
0.00305695
0.00248349
0.00239591
0.00383976
0.00236411
0.00279631
0.00230378
0.00266899
0.0029893
0.0024753
0.00263454
0.00295799
0.00256286
0.00254331
0.00266735
0.00280944
0.00288786
0.00266674
0.00252421
0.00260064
0.00272906
0.00291976
0.00223647
0.00237353
0.00248106
0.00263215
0.002401
0.00293104
0.00233108
0.00299196
0.00233792
0.00243723
0.0034453
0.00259486
0.00252438
0.00256866
0.00301845
0.00240099
0.00319531
0.00256743
0.00271445
0.00312329
0.00258953
0.00322934
0.00273874
0.00264406
0.00225234
0.00258345
0.00266492
0.0023845
0.00253043
0.00283206
0.0029089
0.00325242
0.00242986
0.00310572
0.00219404
0.00326149
0.00266786
0.00242774
0.00264856
0.00276539
0.00258844
0.00290828
0.00249987
0.00303929
0.00256875
0.00227666
0.00251571
0.00290455
0.00290841
0.00279347
0.0022454
0.00322628
0.00214207
0.00271908
0.00236498
0.0029346
0.00254074
0.00284396
0.00287015
0.00214102
0.00291281
0.00287561
0.00290966
0.00235264
0.00289554
0.00263942
0.00266838
0.00295651
0.0030649
0.00274116
0.00288905
0.0023847
0.00239183
0.00333539
0.0030039
0.00276565
0.00222943
0.00296014
0.00233783
0.00234349
0.00197526
0.0032208
0.00303745
0.0028266
0.00312539
0.00304353
0.0029113
0.00247752
0.00311105
0.00234804
0.00280028
0.00276536
0.00252695
0.00301644
0.00205828
0.00240165
0.00190514
0.00271575
0.00235003
0.00280977
0.00251881
0.00243174
0.00285792
0.002924
0.00236582
0.00207622
0.00269656
0.00258803
0.0028767
0.0029023
0.00265513
0.00229744
0.00214973
0.00253124
0.00209873
0.00273577
0.00301196
0.00206535
0.00286666
0.0028433
0.00289695
0.00322188
0.00202696
0.00332505
0.00252232
0.00272088
0.00275843
0.00261461
0.00239404
0.00255124
0.00221444
0.00240063
0.00245231
0.00272635
0.00301152
0.00272848
0.00322825
0.00301277
0.00249254
0.00286354
0.00216714
0.00261025
0.00291088
0.00282336
0.00261717
0.00311647
0.00247502
0.00233992
0.00290685
0.00263711
0.00295192
0.00302821
0.00235782
0.00210262
0.00303206
0.00273171
0.00238484
0.00272415
0.00324286
0.0030344
0.00235415
0.00237585
0.00324429
0.00265572
0.0025294
0.00297611
0.00251604
0.00245091
0.00268327
0.00232092
0.00293942
0.00225608
0.00277669
0.00295082
0.00231938
0.00255483
0.00298129
0.00235018
0.00295643
0.00264915
0.00256877
0.00253922
0.00228807
0.00269414
0.00298178
0.00244742
0.00234072
0.00306503
0.00284825
0.00290916
0.00253085
0.00281407
0.00321394
0.00285377
0.00299707
0.00285065
0.00256021
0.00221551
0.00218652
0.00234523
0.0033511
0.00242602
0.00252341
0.00233613
0.00259488
0.00332317
0.00263016
0.00235803
0.00244023
0.00269229
0.0024093
0.00317432
0.00292112
0.00279955
0.00241575
0.00202312
0.0027659
0.00298623
0.00234496
0.00265736
0.0030194
0.00291497
0.00202507
0.00296248
0.00295827
0.00202989
0.00261484
0.00252498
0.00275738
0.00298319
0.00235224
0.00298134
0.00288826
0.00233666
0.00293253
0.00274898
0.00206097
0.00248141
0.00228624
0.00295677
0.00231477
0.00249387
0.00220715
0.00233897
0.00288715
0.00231044
0.00258412
0.00251281
0.00237627
0.00284525
0.00258436
0.00263883
0.00291498
0.00245086
0.00227773
0.00227986
0.00276358
0.00273104
0.0029582
0.00274582
0.00315134
0.00326355
0.00251534
0.00332459
0.00250185
0.00253536
0.00290704
0.00336428
0.0025729
0.00282053
0.00278809
0.00362834
0.0023808
0.00324709
0.00289828
0.00245034
0.00308171
0.00293787
0.00261944
0.00254781
0.00247976
0.00305614
0.00345334
0.00213617
0.00332316
0.00248651
0.0029269
0.00353429
0.0023247
0.00247694
0.00254039
0.00284877
0.00305196
0.00293619
0.00252984
0.00284987
0.00233209
0.00335039
0.0029686
0.00308871
0.00232653
0.00272911
0.00272919
0.00263801
0.00253328
0.00231472
0.00302674
0.00256657
0.00256396
0.00242079
0.00255359
0.00379291
0.002714
0.00234362
0.00249852
0.00220316
0.00233531
0.00240974
0.00251408
0.00346141
0.00242596
0.00219499
0.00240828
0.0030157
0.00293397
0.00231231
0.00297586
0.00271492
0.00304004
0.00273522
0.00302492
0.00247874
0.00267158
0.00251785
0.00319491
0.0024164
0.00299802
0.00349258
0.00339996
0.00302956
0.00294051
0.00251661
0.00219032
0.00261912
0.00279629
0.00246069
0.00335969
0.00256195
0.00282221
0.00327754
0.00292945
0.00215618
0.00225195
0.0025272
0.00273082
0.0030023
0.00266405
0.00286129
0.00294493
0.0033595
0.00258309
0.00280606
0.00296783
0.00224261
0.00259896
0.00293861
0.00292599
0.00248195
0.00306331
0.00320922
0.00233824
0.00242245
0.00252913
0.00294271
0.00216886
0.00325539
0.00300697
0.00247665
0.00218838
0.00253211
0.00296692
0.00322064
0.00236949
0.00356485
0.00364048
0.00293616
0.00431538
0.00229327
0.00253077
0.00294241
0.00307367
0.00304145
0.00214248
0.00360319
0.00298657
0.00226272
0.00383526
0.00238446
0.00298365
0.00278799
0.00364526
0.00259493
0.00299828
0.00204881
0.00367927
0.0023184
0.00264975
0.00342126
0.00234672
0.00218172
0.00294556
0.00235736
0.0023826
0.00286286
0.00310155
0.00279753
0.00214208
0.00280314
0.00205206
0.00274784
0.00254671
0.00247449
0.00238719
0.00224184
0.00249812
0.00277457
0.00294503
0.00298974
0.00325967
0.00332926
0.00314413
0.00214345
0.00285473
0.00235443
0.00302182
0.00287832
0.00256219
0.00278012
0.00234423
0.00281186
0.00249733
0.00319167
0.00294758
0.00247152
0.00310333
0.00280316
0.0029783
0.00307762
0.00242831
0.00258008
0.00296344
0.00236663
0.0027988
0.00267986
0.00257783
0.00222782
0.00218484
0.00276096
0.00251442
0.00260361
0.00232871
0.00304165
0.00226138
0.00284808
0.00451509
0.00293015
0.00294047
0.00276595
0.0022972
0.00265357
0.00270625
0.00258383
0.00319216
0.00312373
0.00319506
0.00237588
0.00296918
0.00286533
0.00267584
0.00291397
0.00313739
0.00298293
0.00262319
0.00237577
0.00355378
0.00231875
0.00250205
0.0029847
0.00249312
0.00325259
0.00255383
0.00261081
0.0027676