/*--------------------------------*- C++ -*----------------------------------*\
  =========                 |
  \\      /  F ield         | OpenFOAM: The Open Source CFD Toolbox
   \\    /   O peration     | Website:  https://openfoam.org
    \\  /    A nd           | Version:  7
     \\/     M anipulation  |
\*---------------------------------------------------------------------------*/
FoamFile
{
    version     2.0;
    format      ascii;
    class       surfaceScalarField;
    location    "1.015";
    object      phi;
}
// * * * * * * * * * * * * * * * * * * * * * * * * * * * * * * * * * * * * * //

dimensions      [0 3 -1 0 0 0 0];

internalField   nonuniform List<scalar> 
216617
(
2.42771e-08
2.74677e-08
-2.31691e-08
-2.85756e-08
-6.73014e-10
5.2034e-09
-2.93711e-08
2.48407e-08
-1.38257e-08
-1.85916e-08
2.00531e-08
1.23641e-08
-3.50927e-08
-4.16184e-08
4.45447e-08
3.21663e-08
2.29022e-09
7.5206e-10
-3.57092e-09
5.28641e-10
-1.57708e-08
3.7509e-09
3.93601e-08
-2.73403e-08
3.5723e-08
2.84681e-08
-6.75692e-09
-5.74341e-08
-2.28956e-08
3.66362e-08
1.64137e-08
-3.01543e-08
7.13969e-09
-2.58559e-09
-4.48945e-08
4.03404e-08
-2.57598e-09
2.64608e-08
-4.67804e-08
-3.15654e-08
4.296e-09
3.4409e-08
6.47839e-09
-4.8229e-09
1.97208e-09
-3.62757e-09
9.1493e-09
-2.29986e-08
1.63815e-09
1.22112e-08
3.29091e-08
-4.2411e-08
-3.11216e-09
1.2614e-08
8.58929e-09
1.07168e-08
2.53448e-09
-1.96004e-09
-4.90521e-09
7.37129e-09
-5.06047e-10
-4.65432e-08
4.32406e-08
4.57554e-08
-4.24528e-08
1.58543e-08
4.1315e-08
-2.14463e-08
5.1742e-10
2.43741e-10
5.71723e-09
1.34825e-08
7.12103e-09
-1.20142e-08
-9.92312e-09
-6.69098e-09
4.74906e-08
-3.08765e-08
-4.95923e-08
3.35817e-09
1.11415e-08
4.04187e-08
1.01986e-08
-1.84436e-08
-3.21737e-08
3.85482e-08
-2.61793e-08
2.80498e-08
1.66689e-08
1.29578e-08
9.24006e-09
-3.88668e-08
-4.29563e-08
2.35868e-08
1.4666e-08
4.70353e-09
-3.83242e-08
7.01005e-08
-7.49925e-09
4.06668e-08
-4.11968e-08
-1.52408e-08
-4.45548e-08
2.22537e-08
1.48046e-08
7.49648e-09
1.60829e-08
-1.355e-08
3.03762e-08
2.67362e-08
-7.74016e-09
-2.41126e-08
5.11659e-09
1.43066e-08
-2.69944e-08
6.48396e-11
1.26229e-08
3.33128e-08
2.16756e-08
-2.82522e-08
-2.22396e-10
-6.61656e-09
4.7201e-10
6.36695e-09
1.96442e-08
1.07519e-08
-1.96794e-08
1.11099e-08
-1.22006e-08
1.77596e-08
2.06564e-08
-5.99489e-08
-7.25069e-09
-5.36468e-09
5.54641e-10
-7.64721e-09
1.24573e-08
-4.93325e-09
-1.06457e-08
-7.98825e-10
1.63778e-08
2.57968e-08
-4.88153e-08
2.51038e-08
-2.08526e-09
3.95388e-08
2.7408e-09
-1.06682e-08
-3.16113e-08
-1.98377e-08
-1.43551e-08
5.00472e-08
-1.59794e-08
2.11053e-08
-2.49636e-08
-2.85548e-08
-6.15023e-09
-1.12986e-08
4.60036e-08
-4.62595e-08
2.67406e-08
2.23737e-08
-2.85478e-09
4.22022e-09
6.69003e-09
4.00242e-09
-1.49127e-08
1.85691e-08
3.67905e-08
-5.40537e-08
-1.30583e-09
-2.22672e-08
-2.93553e-08
5.36298e-09
2.37852e-09
-8.79082e-09
1.44266e-08
-8.01433e-09
4.27477e-10
-1.59341e-08
2.98133e-08
2.61684e-09
2.49254e-10
-5.75877e-10
4.33124e-09
-4.36519e-08
4.67142e-08
-7.39353e-09
-5.53071e-09
-2.61739e-08
2.21869e-08
9.51762e-09
-3.9595e-09
-3.93809e-08
-6.73525e-09
5.00756e-08
-6.12022e-09
4.91224e-09
9.28093e-09
2.88745e-08
-4.36862e-08
1.94864e-09
-7.68801e-09
-1.15598e-08
5.97945e-10
1.12744e-08
-3.12497e-10
4.51858e-08
-4.2465e-08
1.58484e-08
-3.80099e-08
4.92044e-08
-1.11486e-08
-4.58414e-11
-1.03575e-08
1.9607e-08
1.65473e-08
1.657e-08
-4.78978e-09
3.64723e-10
-1.21449e-08
-2.78008e-08
-1.30031e-08
-2.51297e-09
-3.8058e-09
8.6973e-09
-1.34023e-08
-1.41214e-08
2.79511e-08
-3.46407e-08
-2.60815e-09
4.15801e-08
1.17211e-08
-2.50585e-08
2.30743e-08
-1.9144e-08
2.71714e-08
-3.11017e-08
-4.31411e-08
2.88626e-08
-1.73248e-08
3.16033e-08
8.3248e-10
-7.82699e-09
3.00688e-08
1.48106e-08
-2.97747e-08
-1.03934e-08
2.53575e-08
1.1682e-08
-1.07049e-08
-7.2993e-10
-2.47136e-10
2.17523e-08
-4.91646e-09
-2.6588e-10
7.95781e-09
-2.45392e-08
-1.19735e-08
-1.71368e-08
4.09086e-08
1.37914e-08
-3.75632e-08
1.29036e-09
3.09506e-08
1.07191e-09
6.206e-09
-1.32596e-08
7.5091e-09
-4.55521e-10
-2.37684e-08
-4.33018e-08
2.8746e-08
-2.87899e-08
8.55246e-09
3.50481e-08
1.12973e-08
1.14075e-08
-2.01703e-08
-1.73457e-08
2.86407e-08
1.54673e-08
-2.67623e-08
-9.37247e-09
2.63589e-09
-1.5027e-08
2.17636e-08
-5.41836e-08
2.24887e-08
1.78692e-08
-3.61333e-09
-4.15345e-08
7.13789e-09
-4.23625e-08
-1.09941e-08
3.51441e-08
1.82126e-08
1.4173e-08
-5.51493e-09
-2.4521e-09
6.27583e-08
-4.66808e-08
1.13901e-08
1.76256e-08
-2.72688e-08
-7.70249e-09
2.65268e-08
-4.8849e-08
1.19647e-08
-3.93474e-08
1.27056e-08
-1.8703e-08
4.53447e-08
7.58081e-09
7.44339e-09
-1.49313e-08
-9.29109e-11
-4.95135e-08
1.89212e-08
7.15171e-09
-1.84921e-08
6.25308e-09
-5.74275e-08
1.20637e-08
3.91108e-08
-6.40363e-09
1.01883e-08
1.98608e-08
1.37141e-08
-1.46537e-08
4.47642e-09
-3.28104e-08
-1.48072e-08
-3.5309e-08
3.88684e-08
1.06744e-08
-1.11291e-08
-4.4786e-09
3.56216e-08
-3.15519e-09
-1.5155e-08
-1.73115e-08
-2.34554e-08
-8.07119e-09
-1.00918e-08
3.56975e-08
-1.69367e-08
-1.39427e-08
-4.81814e-09
-2.81834e-08
-3.29091e-08
1.81362e-08
3.47231e-08
-2.06319e-08
-8.01388e-09
-7.81818e-09
3.64639e-08
2.20299e-08
1.79409e-08
-4.32017e-10
1.31092e-08
-3.53339e-08
-7.72162e-09
2.99463e-08
-1.0776e-08
1.88594e-08
3.29695e-09
-4.04022e-10
-1.29832e-08
3.49098e-08
-5.30201e-08
3.10934e-08
5.88916e-09
-5.98982e-09
-4.72223e-09
-7.3796e-09
1.23153e-09
-2.64275e-09
-3.53493e-08
-3.76985e-08
1.69921e-08
1.97157e-08
1.08602e-08
-4.75681e-08
-4.05913e-09
-3.7215e-09
-3.77919e-09
2.34306e-08
1.03646e-08
1.69911e-09
-3.54943e-08
7.21794e-08
-3.59997e-08
-3.80579e-08
1.87822e-09
-4.1506e-08
-1.82404e-10
5.45765e-08
-1.28881e-08
-1.1528e-08
4.67665e-08
9.94721e-09
-9.72107e-09
-3.19802e-08
2.10694e-08
-8.55345e-09
6.72452e-09
1.82892e-09
2.4269e-09
3.36771e-08
-1.26613e-08
-2.34427e-08
1.15271e-08
2.68315e-08
-3.75092e-08
-8.49347e-10
1.69259e-08
1.67285e-08
1.08903e-08
-7.68923e-09
2.30023e-10
7.97662e-09
4.97096e-08
6.04318e-08
-7.599e-08
-3.41513e-08
2.27356e-08
-4.45606e-08
1.26488e-08
9.17623e-09
-4.82953e-09
-5.4594e-08
3.67876e-08
2.26359e-08
6.11035e-08
-3.93495e-08
-1.72776e-08
3.27529e-08
-1.62249e-08
-4.45084e-10
-3.35396e-08
1.54034e-08
-9.30945e-09
2.74457e-08
-8.88729e-09
-2.19339e-09
7.02155e-09
4.14833e-08
7.2572e-09
-2.26461e-08
-2.60944e-08
-1.31688e-08
-1.65737e-08
3.02972e-08
1.56404e-08
2.15682e-08
-2.61437e-08
-1.10649e-08
-4.01095e-08
7.20686e-09
-9.45986e-09
-5.93196e-09
-1.456e-09
3.08186e-08
-3.28096e-09
-3.04738e-08
4.49256e-08
-1.11708e-08
-1.36767e-08
-4.57607e-10
3.8763e-08
-8.0735e-09
-2.04873e-09
-3.50697e-08
2.90814e-08
-1.8053e-08
2.40413e-08
2.03458e-08
-4.91422e-08
4.87684e-09
2.39196e-08
9.94525e-09
1.39014e-08
-3.68298e-08
1.27597e-08
-2.91291e-08
-2.51366e-08
-4.51902e-09
-2.70273e-09
3.27355e-08
-4.70185e-08
-1.42927e-08
-1.26881e-08
-2.36767e-09
5.35514e-08
-3.84956e-08
2.63786e-08
4.4096e-08
-3.47771e-08
-6.52826e-09
-2.62599e-08
9.78952e-09
-4.97878e-08
-4.29391e-08
3.67078e-08
5.60191e-08
-3.86687e-08
2.09724e-09
1.94347e-08
5.50643e-09
-2.31508e-09
6.27336e-09
-9.4647e-09
-6.25273e-08
2.17318e-08
-1.66953e-09
-3.24862e-08
1.08751e-08
5.40775e-11
2.15571e-08
4.55613e-08
-9.99527e-09
5.91726e-09
-1.03923e-08
1.51954e-08
-5.43341e-09
6.30294e-10
-3.07429e-08
-1.37687e-11
-2.78065e-08
2.26993e-08
-2.53866e-08
-4.69407e-08
4.96281e-08
-8.51698e-09
-4.61477e-10
9.11641e-11
-1.2413e-09
6.97102e-09
-1.31093e-08
-1.01227e-08
7.38881e-09
3.25358e-08
-2.98019e-08
-2.84384e-09
1.78484e-09
-3.30837e-09
4.36737e-09
-3.81133e-08
2.7388e-08
3.75567e-08
2.51189e-08
1.1811e-08
-1.65841e-08
-2.77463e-09
3.98009e-10
-4.67212e-10
-1.90609e-08
1.52746e-08
-1.99596e-08
2.37459e-08
-9.99682e-09
4.37773e-08
-7.04335e-09
-2.67372e-08
2.38454e-09
-1.23096e-08
-3.15334e-08
4.14585e-08
-3.32353e-08
3.93456e-08
-3.71841e-09
-2.39191e-09
2.02271e-08
-6.09238e-09
1.36614e-08
-3.91298e-08
-2.84419e-08
5.39103e-08
-7.7731e-09
-2.03099e-09
2.0914e-08
1.3127e-08
2.37644e-08
2.53402e-09
-3.35309e-08
5.82306e-08
-2.72337e-08
-5.25082e-08
3.39495e-09
4.92593e-08
-1.45997e-10
5.22848e-08
-6.23475e-08
3.31297e-08
-2.3067e-08
-4.78553e-08
2.30501e-08
-7.15857e-09
3.19638e-08
3.35443e-09
9.61873e-10
3.67722e-10
-4.68402e-09
-2.79265e-08
1.16055e-08
2.2574e-08
5.87046e-08
-1.3511e-08
-3.19145e-08
-1.32791e-08
6.30637e-09
-1.86945e-09
1.96696e-10
-4.63361e-09
-1.58246e-09
3.96523e-08
4.04043e-09
-4.21103e-08
-7.73726e-09
-1.709e-08
5.76636e-09
6.68618e-09
5.33497e-08
-1.69096e-08
-4.31262e-08
1.43506e-08
4.33771e-08
-4.84468e-08
-3.65811e-08
1.07984e-08
-1.43269e-08
1.90681e-08
-3.63489e-08
1.46506e-08
2.63014e-09
-7.22595e-09
3.53272e-08
-2.61526e-08
1.12823e-09
-5.48441e-10
3.01797e-08
1.43389e-08
-7.45492e-09
3.61046e-08
-2.27106e-09
9.98115e-09
-9.86982e-09
-1.10484e-08
1.09371e-08
2.14268e-08
4.76013e-09
-2.06174e-08
-5.56956e-09
5.71729e-09
2.28244e-08
-3.53632e-08
6.82155e-09
1.07119e-08
-3.96714e-08
5.56622e-08
-3.58668e-08
2.41796e-09
3.91116e-08
-5.25237e-08
2.81107e-08
-2.84823e-09
8.51653e-09
1.62994e-08
-4.61616e-09
-1.48344e-08
7.12358e-09
-2.64631e-11
-2.88178e-08
5.44219e-08
-2.30701e-08
1.07572e-08
-2.10358e-08
1.16492e-08
-1.3706e-09
4.4455e-10
9.69606e-09
-8.85025e-09
1.93501e-08
-4.68913e-08
-4.94508e-09
-4.23667e-08
-1.69972e-08
6.01252e-08
-7.61386e-10
-1.87537e-08
-3.36493e-08
1.88721e-08
-5.33022e-09
-4.8073e-09
2.4903e-09
-4.54654e-08
8.95212e-09
-1.75405e-08
6.74675e-09
-9.58487e-10
6.71899e-09
-1.25073e-08
2.2553e-09
-2.64392e-08
-1.99879e-08
4.41718e-08
-1.21178e-08
1.35925e-08
1.75934e-08
-9.40084e-09
3.93148e-08
-3.03564e-09
1.01592e-08
-7.30811e-09
1.8456e-10
-7.26485e-09
1.46486e-10
3.49303e-09
3.62533e-09
-2.27824e-08
2.33339e-08
4.64573e-11
3.97453e-08
-8.08856e-09
3.10111e-08
-8.8517e-09
-7.90888e-09
-2.12649e-08
3.15583e-08
-2.57707e-08
1.61173e-08
8.9994e-09
6.54011e-10
2.11851e-08
-4.16513e-10
3.71752e-09
-3.88891e-08
-7.2394e-09
4.79732e-09
2.63685e-08
-3.18389e-08
1.81274e-08
1.68927e-08
-3.4844e-08
-1.76171e-10
-3.77554e-08
3.24333e-08
3.20627e-08
-4.1001e-08
3.57486e-08
-7.43564e-09
-1.24933e-09
2.5512e-08
-3.0192e-08
5.92936e-09
2.25524e-09
2.47341e-08
3.57689e-08
-8.10148e-09
1.49216e-09
-1.46912e-10
6.75623e-09
3.97046e-08
-1.55249e-09
-4.51708e-08
7.01866e-09
4.29579e-08
2.93978e-08
-2.22682e-08
-9.10752e-09
2.74177e-08
3.95802e-09
-1.1483e-08
9.25782e-09
2.44117e-08
-2.21865e-08
3.50874e-08
-2.14749e-08
1.66079e-08
-3.02204e-08
1.92481e-08
-3.66624e-08
2.62493e-08
-3.48265e-08
1.22637e-08
-3.68645e-09
-3.17549e-09
-1.83913e-08
4.63004e-09
-3.29336e-08
1.04587e-08
-3.10634e-08
5.35383e-08
-8.07134e-09
-1.81748e-11
-1.1966e-11
1.95353e-08
-6.82889e-09
5.19707e-08
-2.00903e-08
-2.50515e-08
1.68779e-09
-3.09213e-08
3.44369e-08
-1.05301e-08
4.13251e-08
-4.14632e-08
-7.53752e-09
9.3408e-09
-3.11121e-10
5.23362e-08
-2.05877e-08
1.7961e-08
-6.37363e-08
3.81046e-08
2.08022e-08
3.85392e-08
-5.24697e-09
-3.87232e-08
1.98306e-08
2.41395e-08
1.87573e-08
-3.02879e-08
-2.40812e-08
6.05936e-09
1.92801e-08
-1.25824e-09
-6.44816e-09
4.1811e-08
-1.61147e-08
-1.20376e-08
-2.05296e-08
4.62286e-08
-9.13322e-09
1.09141e-08
-2.04623e-09
1.58877e-09
-4.06323e-08
4.10898e-08
-1.88004e-08
2.52855e-08
1.89937e-08
-5.61907e-08
3.03854e-08
-8.64121e-09
-1.93173e-08
4.30378e-08
-2.3712e-08
-2.61547e-08
5.49333e-09
2.72407e-08
7.61705e-10
-1.66263e-08
-1.45149e-09
1.7316e-08
-7.58484e-09
1.35693e-08
-3.75179e-08
-3.14103e-08
1.0869e-08
-1.09084e-08
3.90297e-09
-4.51102e-09
1.15165e-08
4.62111e-08
-3.54089e-08
-7.09342e-11
-1.07313e-08
-2.38307e-08
2.70633e-08
-4.23424e-08
5.5372e-08
-1.53972e-08
-1.43787e-08
-2.15254e-09
1.12442e-08
5.28705e-09
-1.0656e-08
-1.71318e-08
1.68793e-08
8.61756e-09
5.15246e-08
-4.27903e-08
-1.73518e-08
1.58287e-08
3.04467e-08
-3.4615e-08
-1.16604e-08
-1.40788e-08
-2.37797e-08
-1.80086e-08
-4.44965e-08
3.39191e-08
4.96566e-09
-5.2076e-09
3.65935e-08
1.14322e-08
-1.7546e-08
-3.04797e-08
3.19964e-08
4.66923e-09
2.44379e-08
4.63735e-09
-2.8741e-08
1.81521e-08
-3.28678e-10
1.09175e-08
-2.6149e-09
-1.55014e-08
2.84787e-08
-1.03625e-08
-3.74299e-08
1.00483e-08
1.52638e-08
-2.75233e-08
9.38351e-09
3.10574e-08
-1.29177e-08
-5.02954e-09
1.54389e-09
-1.46606e-10
-4.00129e-08
5.58271e-09
-4.73963e-09
-2.61194e-09
1.76886e-09
2.65918e-08
-2.16157e-08
-1.25867e-09
-1.46059e-09
-1.92364e-08
-1.28427e-08
-6.59716e-09
-2.28897e-08
9.80008e-09
1.96868e-08
1.14722e-08
1.03103e-08
-3.55637e-10
-9.49664e-09
1.40186e-08
-6.19004e-10
-8.47679e-09
3.77184e-08
-6.54233e-09
-2.45043e-08
1.39045e-08
-3.7748e-08
-2.64907e-09
-7.45825e-09
1.06908e-08
-1.76621e-08
-2.66909e-08
3.36622e-08
-9.17147e-09
7.27147e-09
4.79974e-08
-4.71855e-08
2.58306e-09
5.05892e-08
-1.04955e-08
-1.8244e-08
-7.16825e-09
1.27923e-08
1.26199e-08
2.07276e-09
6.16242e-09
-3.32294e-09
5.94215e-09
8.72089e-10
-1.54998e-08
2.11606e-08
-2.86442e-08
2.29834e-08
2.13879e-08
-9.28026e-09
-1.41686e-09
5.74347e-09
6.37931e-09
3.9848e-08
-4.62127e-09
6.40609e-09
2.90333e-08
-1.71291e-08
6.29178e-10
-1.25334e-08
-1.42436e-08
1.17813e-08
6.8592e-09
9.83724e-09
1.23369e-08
-3.53785e-08
4.67109e-08
-1.46133e-08
3.87723e-08
4.20339e-09
1.12536e-08
5.98576e-08
-3.00615e-08
-4.10498e-08
1.37516e-08
-6.52792e-09
-7.19866e-11
4.03257e-09
-1.79778e-08
1.74319e-09
4.01128e-08
-1.54875e-08
-1.39342e-08
1.25422e-09
2.28766e-09
-3.64289e-08
1.06757e-09
-1.1404e-08
4.67654e-08
-4.04935e-08
2.48385e-09
7.53584e-09
-1.45894e-08
2.36404e-08
2.94223e-09
-1.19932e-08
3.65375e-08
2.08306e-09
-3.19531e-08
-6.6674e-09
-2.44894e-08
3.12278e-08
2.60225e-08
-3.27609e-08
-1.13988e-08
1.67065e-08
-7.92261e-09
-3.26753e-08
-7.09871e-09
2.96513e-08
2.15606e-08
-3.32827e-09
1.70401e-08
-1.3028e-08
-4.04409e-08
-1.41219e-08
-1.19666e-08
3.17798e-10
-2.86535e-08
-2.78961e-08
2.77318e-08
-1.8006e-09
2.22989e-10
3.98966e-08
-2.64249e-08
2.50675e-08
3.00939e-09
-2.06246e-09
-8.34751e-10
-1.12186e-10
2.60603e-08
-2.98788e-08
3.73581e-11
-5.08744e-09
-3.14284e-09
8.19292e-09
1.50948e-08
-3.66822e-08
8.92743e-09
1.266e-08
5.20341e-08
-1.45272e-08
4.97747e-11
3.67813e-08
-2.87627e-08
-1.87631e-09
5.60503e-08
4.53056e-09
1.12376e-08
3.75437e-08
-2.29732e-08
-1.37109e-08
-1.18901e-08
4.85742e-08
4.38139e-08
3.57328e-09
-4.42488e-08
-3.13838e-09
-1.61444e-08
-1.58445e-08
4.12784e-08
-9.28948e-09
-1.23204e-08
-7.6978e-09
7.94855e-09
2.84941e-08
2.32971e-09
-7.51818e-09
1.66557e-08
-2.33944e-08
1.42568e-08
-2.63723e-08
3.11896e-08
1.28682e-08
-1.76855e-08
4.74762e-08
1.63335e-08
-3.65644e-08
-2.72453e-08
-3.46566e-08
-3.85585e-09
9.85893e-09
2.78693e-09
1.72202e-08
-5.83429e-09
-1.41728e-08
2.75427e-09
-2.15179e-08
1.94496e-08
-6.85957e-10
1.94072e-08
1.70829e-08
2.81642e-08
-4.65995e-08
-6.05403e-09
2.82094e-08
2.64377e-09
-1.58691e-08
-1.49841e-08
-3.13442e-08
-6.32631e-09
3.17386e-08
1.16825e-09
4.9727e-09
-3.35403e-09
-1.62285e-08
-5.04865e-09
-7.46381e-09
1.79973e-08
1.28901e-08
-5.01987e-10
-3.83048e-08
4.03048e-08
-1.31487e-08
-3.92044e-08
-2.51612e-08
4.52658e-08
3.74582e-08
-7.44727e-09
-3.4142e-08
2.28645e-08
-2.33355e-08
1.04368e-08
-1.673e-08
2.96288e-08
-1.64647e-08
-1.32527e-08
1.44427e-08
1.52748e-08
-4.15715e-08
3.86884e-08
-6.2463e-09
9.12937e-09
1.84859e-08
4.00658e-08
-1.21744e-08
-3.57463e-08
-1.58157e-08
1.52686e-08
3.93638e-08
-1.49278e-08
1.71726e-08
3.47438e-08
1.51621e-08
1.37367e-08
-1.10846e-08
-1.78141e-08
-1.42071e-08
2.05212e-09
-1.46073e-08
1.99185e-08
-5.96133e-09
-1.2789e-08
3.07671e-08
2.4109e-09
-3.47605e-08
6.41822e-09
-1.39378e-08
-1.66413e-08
2.41608e-08
2.34403e-08
1.69038e-08
-1.21799e-08
2.328e-08
3.59849e-08
-6.9801e-09
-4.3674e-09
-8.27261e-09
2.62325e-08
9.80905e-09
-9.99175e-09
7.04191e-09
5.05097e-08
-4.56745e-08
-8.79468e-09
-6.05328e-09
-5.05807e-09
1.11487e-08
-7.3197e-09
6.01704e-09
-4.2072e-08
-1.80801e-08
2.07713e-08
4.11837e-08
-6.2802e-09
-1.67673e-08
-2.73288e-08
1.02372e-08
-2.58317e-08
1.28599e-08
-2.52955e-09
-5.10378e-09
-3.23588e-08
2.48012e-08
-4.23865e-08
2.18182e-08
2.36357e-09
1.82047e-08
-2.66428e-09
3.17937e-08
-2.04005e-08
3.89977e-08
-2.24528e-09
7.16661e-09
-4.3919e-08
3.23911e-10
1.48621e-08
1.08082e-09
-1.62668e-08
1.42445e-08
3.9824e-08
-1.316e-08
3.8282e-08
1.21346e-09
1.86339e-09
-3.3266e-09
2.4975e-10
6.01046e-09
-5.51786e-09
7.20859e-10
-1.58512e-09
4.73274e-09
-1.38227e-10
-8.62747e-10
-2.10177e-08
-3.87844e-10
1.27776e-08
-5.31104e-09
9.52336e-09
-1.69899e-08
-4.82662e-08
2.94684e-08
-4.76791e-08
-1.2838e-08
-1.83045e-09
3.51078e-08
-2.0665e-09
-4.45243e-08
7.60707e-09
-6.7284e-09
1.18989e-08
-2.03597e-08
1.02272e-08
-1.11324e-08
-6.90713e-09
-2.46505e-09
9.37218e-09
8.26695e-09
1.37877e-08
-1.48188e-08
-7.23583e-09
-2.8869e-08
2.81336e-08
-4.18099e-09
-4.45049e-09
-1.26832e-08
2.54426e-09
3.79593e-09
-2.78708e-08
7.39368e-10
-5.97942e-09
-4.25016e-09
4.1763e-09
2.43083e-09
2.25065e-08
-1.64208e-08
9.13666e-11
-2.90436e-10
-1.5471e-08
2.88771e-08
5.87733e-08
1.33696e-08
-4.47538e-08
8.83026e-09
2.2554e-08
-1.54618e-08
-3.77368e-08
1.23157e-08
4.08829e-08
7.49049e-09
-1.06343e-08
-2.26878e-08
-3.75795e-08
6.03832e-08
-2.27854e-08
-1.8327e-11
5.77411e-09
-3.86256e-08
1.76224e-10
-2.63178e-08
2.7558e-08
-6.43042e-09
5.19018e-09
3.04879e-10
-2.27815e-09
-2.52866e-08
2.72599e-08
3.52894e-08
9.8127e-09
-4.39286e-08
3.9074e-08
3.13154e-08
1.37207e-08
4.71383e-08
2.75601e-08
-3.48807e-08
-2.86791e-08
-5.14284e-09
8.07028e-09
-4.51255e-09
2.92197e-09
-2.84337e-09
6.66814e-09
-5.99711e-08
3.68695e-08
-1.73919e-08
-1.85723e-08
6.17853e-09
-3.8348e-09
2.60949e-08
3.75239e-08
-2.65657e-08
1.59639e-08
-2.69221e-08
5.84642e-09
-9.95316e-09
-1.05899e-08
1.46966e-08
7.5136e-10
-5.77916e-09
-1.35445e-08
-3.91075e-08
3.06783e-08
1.08472e-08
-2.36685e-08
6.50449e-09
2.16726e-08
-4.50865e-09
4.6549e-09
1.61353e-08
-3.57002e-09
4.63346e-08
7.59101e-09
-1.12784e-08
-4.26472e-08
-1.81357e-08
4.90914e-09
-2.00088e-08
-3.00489e-08
2.10432e-09
-4.41248e-10
3.89511e-08
-3.69211e-08
-3.6582e-08
3.11365e-08
-3.09245e-08
-5.27588e-08
3.97548e-08
-3.33211e-08
1.05848e-08
3.53839e-08
-6.11475e-08
-1.66229e-08
-7.75884e-08
1.54614e-08
4.6656e-08
-2.21919e-08
1.25446e-08
-2.84105e-08
-8.87371e-09
3.94696e-09
4.92675e-09
4.07443e-08
-7.44529e-10
7.47651e-09
-7.30546e-09
-4.40066e-08
4.19112e-08
8.25122e-09
-1.57049e-08
-6.45119e-11
1.99936e-08
2.37391e-08
8.11757e-11
3.98282e-09
4.89855e-08
-3.44102e-08
-1.85581e-08
1.18912e-08
-4.30669e-09
-2.99123e-09
-1.95921e-08
-1.08519e-09
-1.96065e-08
1.0837e-08
-6.3054e-09
1.50749e-08
1.12005e-08
-1.161e-08
7.33323e-10
-2.54158e-08
-5.01111e-08
-3.27639e-08
5.72253e-09
3.35548e-08
-6.51343e-09
-1.83681e-08
1.99219e-08
-5.67614e-09
4.12233e-09
-5.63056e-08
1.92693e-08
4.91316e-08
-1.20953e-08
-1.58532e-09
5.06749e-08
-4.95309e-08
-4.90099e-09
1.74152e-08
1.50975e-08
1.65259e-08
-3.95584e-10
-1.58799e-08
3.8109e-08
-3.19767e-08
9.74769e-09
3.52814e-10
1.83843e-08
2.06085e-08
-1.20214e-08
2.78798e-08
1.03908e-08
4.32393e-08
2.69516e-08
-4.86001e-08
-2.15908e-08
-4.58843e-09
-4.69183e-09
1.60311e-09
1.2058e-08
-3.32676e-08
-6.20327e-09
1.36111e-08
-1.56141e-09
-1.94488e-09
2.6138e-08
-1.56406e-08
2.34413e-09
1.12686e-08
-1.0492e-08
-7.86303e-09
5.51363e-08
3.79319e-08
-1.81239e-08
1.38444e-08
-3.0547e-08
1.23177e-09
3.40969e-08
-2.22246e-08
-1.3104e-08
-1.03068e-08
-6.8295e-09
-2.33553e-08
-1.4282e-08
2.83395e-08
2.57743e-08
2.67196e-08
4.96085e-09
-3.81768e-08
6.49634e-09
-1.57853e-08
2.80191e-09
2.25535e-09
-3.9698e-08
-1.68864e-08
4.00531e-08
2.61941e-08
-4.93608e-08
-1.92351e-08
-1.01877e-08
1.39609e-08
-7.88232e-09
1.62308e-08
3.15611e-09
1.21465e-08
2.30056e-08
-1.50317e-08
2.50426e-08
-1.3934e-09
3.02074e-08
2.67544e-08
3.46994e-09
1.66726e-08
3.22703e-08
3.52946e-08
1.9083e-08
-5.20476e-08
-2.3816e-08
4.293e-08
-5.54323e-09
4.35453e-08
3.63854e-08
2.07274e-08
-6.17951e-09
2.25205e-09
-1.00067e-08
5.02373e-10
-1.35828e-10
3.96403e-09
-4.33057e-09
8.13488e-09
1.76823e-10
-4.47524e-11
-5.54286e-09
-1.12032e-08
1.16586e-08
-4.2437e-09
1.28471e-08
-1.80401e-08
-3.70424e-08
-1.79572e-08
4.23967e-08
-2.21842e-08
3.76867e-08
-4.95534e-08
7.00784e-10
1.11659e-08
-2.19098e-08
3.57941e-08
-6.92721e-09
-6.95703e-09
-2.75021e-08
-4.19919e-08
2.09419e-09
5.7228e-09
-7.18688e-09
-6.30104e-10
8.31312e-10
-4.13152e-08
1.31551e-08
4.38196e-08
4.63864e-09
-4.56563e-08
-2.99369e-08
5.59492e-08
2.72101e-08
4.99662e-08
-2.81835e-08
1.20194e-08
6.29425e-09
-2.08853e-08
3.01072e-08
-6.9451e-09
5.85e-09
-2.55958e-08
-1.11441e-08
-1.25861e-08
-1.00443e-10
2.21407e-08
-4.8504e-08
1.21197e-08
1.18558e-08
-3.00495e-08
1.76978e-08
4.95977e-10
4.59461e-08
5.02461e-08
-4.56825e-08
1.10643e-08
-1.57581e-08
4.95081e-09
-2.57023e-10
-1.97191e-08
1.50001e-08
1.65748e-08
4.90335e-08
-5.90915e-09
-3.68914e-08
2.73579e-08
3.50455e-08
2.0231e-09
-3.49059e-10
-3.82551e-08
-1.13337e-08
1.09214e-08
-3.23013e-09
3.64247e-09
-3.70178e-08
4.96234e-08
-1.2788e-08
-2.66051e-08
3.2176e-08
5.18866e-08
2.41023e-09
-8.35075e-09
-2.49117e-08
1.65616e-08
2.60511e-09
7.40911e-09
-9.84829e-09
-1.65933e-10
3.94752e-09
-2.31456e-08
7.86438e-09
3.35713e-08
-1.71847e-08
-9.78678e-09
-4.63461e-09
6.96647e-09
-1.3381e-08
3.1089e-08
-5.35397e-10
-4.74668e-09
6.92585e-09
5.14089e-09
9.43612e-09
-3.81981e-09
1.83901e-08
1.80902e-08
-3.85656e-08
-5.78066e-09
5.35243e-09
4.05025e-10
2.32099e-11
-3.37697e-08
5.30688e-10
-2.15115e-08
5.47506e-08
6.29239e-09
2.48587e-09
-2.42781e-08
-8.69582e-09
-2.4963e-08
4.10491e-08
-2.49072e-08
-8.65135e-09
1.48699e-08
1.43024e-08
-2.80712e-08
-1.10113e-09
1.22596e-08
-7.24342e-09
-1.14777e-08
-5.83539e-08
-2.8687e-08
8.30812e-09
-7.80461e-09
-1.0884e-08
-3.79586e-08
2.43169e-08
-3.25483e-08
-1.71011e-08
2.53325e-08
-4.04405e-08
3.32673e-08
1.28905e-08
1.96356e-08
-5.80659e-09
-2.216e-08
8.33101e-09
-6.62074e-09
2.06846e-08
8.67172e-09
-1.32937e-09
-2.83615e-09
9.58052e-09
-6.70633e-09
-3.96117e-09
1.08698e-09
9.6276e-09
2.77346e-08
-2.08895e-08
5.41855e-09
-2.57111e-08
-5.18807e-10
3.36187e-08
1.19814e-08
-5.47694e-09
-1.56287e-08
2.21364e-08
1.34221e-08
-3.80317e-10
-9.27595e-09
2.90576e-08
1.70545e-08
-1.00387e-08
-4.43246e-08
3.73088e-08
2.46375e-09
8.40123e-09
8.77062e-09
-3.90948e-08
1.18927e-08
-6.33605e-09
-6.65539e-09
1.37566e-08
-7.65175e-10
1.42153e-08
4.17652e-08
-1.82938e-08
4.4661e-08
-1.09975e-08
-4.44395e-08
-2.16022e-08
-1.24164e-08
4.15034e-08
-7.48482e-09
-1.17364e-08
-5.75619e-09
1.95091e-08
-2.95055e-08
-2.2814e-08
3.15873e-09
-4.37853e-08
-3.50309e-09
-2.8824e-08
1.27538e-08
4.11551e-08
1.85408e-09
-3.78564e-09
-1.60842e-08
7.27186e-11
-1.66845e-08
-1.56865e-08
2.25234e-08
9.84759e-09
-9.21595e-09
3.56601e-09
-6.86103e-10
-2.25753e-08
3.68974e-08
9.20045e-09
-3.298e-08
-8.45439e-09
-3.84519e-09
-2.07915e-09
-3.81115e-09
9.28372e-09
-2.30921e-08
-1.26315e-08
-9.62595e-09
3.61529e-09
1.65788e-08
-1.05682e-08
1.42139e-08
-9.69893e-09
-1.4141e-08
1.36158e-08
-4.40797e-09
4.45646e-09
-1.36643e-08
1.52248e-10
-1.48465e-08
2.28624e-09
1.2408e-08
-2.99242e-08
-1.35692e-08
6.06027e-08
-1.71094e-08
6.69352e-09
-1.43713e-08
2.47323e-08
3.01167e-08
2.2366e-08
-7.82169e-09
-3.68053e-08
2.05642e-08
-1.91678e-08
-2.91957e-08
-3.60965e-10
2.96862e-08
-3.80908e-09
8.21971e-09
-4.15511e-08
8.17139e-09
1.64933e-08
5.67485e-10
2.78386e-08
-2.47855e-08
-3.62062e-09
7.19607e-08
-4.41569e-08
-6.35888e-09
4.36913e-08
-1.20573e-08
-2.52752e-08
2.2882e-08
1.19994e-08
8.49571e-09
3.08667e-08
-2.86934e-08
9.29962e-09
-1.1473e-08
1.40721e-08
-4.36318e-08
1.37139e-09
6.90694e-09
1.33943e-08
-1.36169e-08
2.5095e-08
4.595e-09
-1.50066e-08
3.13643e-08
-1.08904e-09
-3.48682e-09
2.28151e-08
1.34939e-09
-2.06777e-08
-1.00307e-08
4.70079e-08
-1.31452e-08
-2.38321e-08
-3.6717e-08
4.78318e-08
-1.11606e-08
3.30992e-08
-2.16246e-08
-1.03241e-08
-1.15047e-09
-1.58533e-08
2.28445e-08
2.19292e-08
-2.24575e-08
6.07396e-09
7.27885e-09
1.18417e-08
-1.54319e-08
4.01837e-08
-1.11711e-08
-3.28793e-09
1.07406e-08
-5.4447e-08
-2.23949e-08
-3.18132e-09
-2.00549e-08
2.08721e-08
-4.59206e-08
2.62048e-08
-4.84648e-08
-1.51866e-08
4.67417e-08
-6.46866e-09
-8.90548e-09
2.75206e-08
-2.69341e-08
3.72928e-08
-1.901e-08
-1.5688e-08
-1.89696e-08
5.5385e-08
4.87003e-08
-2.06765e-08
-1.52641e-08
2.59927e-08
-2.50543e-08
-2.73776e-08
-2.73177e-08
5.312e-09
-2.64591e-08
1.63834e-08
-8.15967e-10
-1.95168e-09
6.01044e-08
-2.2625e-09
3.6778e-08
-2.13125e-08
3.55495e-08
9.72983e-09
-7.15285e-09
2.813e-11
5.37525e-09
-8.57696e-09
1.27822e-08
-9.19636e-09
9.44387e-09
-1.25293e-08
-7.22137e-09
-3.26882e-09
-4.94238e-09
-8.11731e-09
1.63285e-08
4.76745e-09
3.04225e-08
9.73571e-09
1.57113e-08
-1.51863e-08
-2.99139e-08
2.93889e-08
1.57968e-09
-4.06322e-08
4.10756e-08
1.92292e-08
-7.004e-09
-8.60993e-09
8.96118e-09
-1.2033e-09
-1.62123e-08
2.13406e-08
3.91132e-09
3.22684e-09
-4.58338e-08
1.29391e-08
1.53856e-08
9.9963e-09
9.66618e-09
-2.75412e-08
1.97785e-08
1.8827e-08
-2.57606e-08
-8.93355e-09
1.12515e-08
-3.52229e-09
-3.26993e-09
1.21675e-08
-2.66225e-08
3.06592e-08
-3.4958e-08
-8.18991e-09
-1.21599e-09
4.66628e-09
1.49775e-10
2.66657e-09
2.10482e-08
-1.46545e-08
1.05323e-08
-2.00097e-08
-2.6533e-09
-4.51334e-08
-2.43497e-08
2.44054e-08
-2.7597e-08
6.15074e-08
3.4366e-08
-4.42495e-08
4.8207e-08
-2.10339e-09
2.1946e-08
-2.33031e-08
5.83751e-09
-6.37684e-09
1.30392e-08
-1.24999e-08
-4.87705e-11
-1.54048e-08
1.58981e-08
-2.70861e-08
1.38416e-09
5.19182e-08
2.08554e-09
-4.20154e-08
-1.19884e-08
2.72086e-08
7.31065e-09
-1.53136e-08
-1.81283e-08
-7.00064e-10
3.10082e-08
2.57068e-09
-4.66069e-08
3.10931e-08
1.23457e-08
2.96042e-08
-2.47058e-09
-2.21679e-08
1.89314e-08
-2.96559e-08
-5.95994e-09
-1.45445e-08
2.56693e-08
3.51935e-08
-4.5192e-08
2.65408e-08
-1.65424e-08
1.72239e-08
-1.19053e-08
3.04959e-08
7.85656e-10
-3.40978e-09
8.46163e-09
-1.2041e-08
1.32277e-08
4.85805e-09
-6.46364e-09
-3.96679e-09
5.57238e-09
2.48224e-08
-1.25627e-08
-4.17939e-10
-2.17423e-08
-7.39348e-09
1.73282e-08
5.73223e-09
-1.8269e-08
-9.91722e-09
4.19069e-08
-5.58699e-08
1.53189e-08
3.19388e-08
-2.27102e-08
-1.24974e-08
3.7243e-08
8.63148e-09
1.14672e-08
1.86199e-08
-5.86183e-08
1.8808e-08
3.37179e-08
-8.61443e-09
-7.8972e-09
6.68624e-09
9.82538e-09
1.18451e-08
-1.48808e-08
2.81206e-09
-3.36008e-09
-1.11884e-08
-6.31057e-09
1.19543e-08
6.52833e-09
-3.07716e-08
-2.62256e-08
4.13091e-08
1.18128e-08
-2.55412e-08
8.39814e-09
2.95952e-08
1.15893e-09
-1.30563e-08
-3.9282e-08
-1.27139e-08
-1.26219e-08
2.70495e-08
-1.83084e-10
-1.74965e-08
-3.08967e-08
6.84213e-09
-3.70722e-10
-8.73823e-09
4.43025e-08
-1.52959e-08
3.21194e-08
-3.30962e-08
1.55488e-08
-5.80882e-10
1.66262e-08
-4.62713e-08
1.12519e-08
3.67548e-08
2.70159e-08
3.16802e-08
-3.13874e-08
-4.95282e-09
3.49777e-09
1.95299e-08
1.26301e-08
-1.42913e-08
3.85992e-08
-2.20466e-09
-2.68922e-08
2.98585e-08
1.95492e-09
-5.11231e-09
1.02532e-08
-2.27835e-08
1.68264e-08
-8.25001e-09
5.75347e-09
-4.16382e-08
1.2995e-08
-4.90626e-09
-6.14219e-09
3.16346e-09
5.53434e-08
3.62571e-08
-2.72055e-09
-1.45642e-08
-1.89723e-08
-2.98712e-09
3.49475e-08
1.59788e-08
1.27824e-08
-8.8851e-09
4.32403e-08
-3.44261e-08
3.23048e-09
-2.74657e-09
1.3514e-08
-1.67902e-08
-3.79206e-08
4.63343e-08
-4.21734e-09
-3.27257e-08
1.02988e-08
-8.34466e-09
-6.19804e-08
3.28593e-08
-2.64548e-08
-1.28713e-08
-4.25657e-09
3.00598e-09
8.98904e-09
1.8095e-08
-1.16984e-08
1.04476e-08
-1.02879e-08
-6.51239e-11
-9.46195e-11
-4.35619e-09
2.25957e-08
-2.01745e-08
2.74753e-08
1.09118e-08
9.15917e-09
-2.72236e-08
-5.94468e-11
-3.49001e-08
3.17324e-08
-9.00669e-09
1.25867e-09
-1.21498e-08
-3.6788e-08
7.7834e-09
-2.9459e-09
-7.82873e-09
3.87663e-09
-6.16715e-09
9.66182e-09
-5.58568e-09
1.56588e-08
-2.222e-09
-7.85113e-09
3.01007e-08
8.41335e-09
-2.72764e-08
-1.1593e-08
1.21803e-09
2.11609e-08
-1.0786e-08
4.77053e-08
-1.08162e-08
-3.56304e-08
4.84477e-09
-1.4181e-08
1.71686e-08
-7.83243e-09
3.21297e-08
-3.6798e-08
-3.07561e-08
1.78244e-08
-2.16832e-08
-3.66367e-08
1.62847e-08
7.09592e-09
1.32561e-08
3.12679e-09
-7.93409e-09
-2.33326e-08
-6.68658e-10
5.6174e-09
-9.27801e-10
1.72467e-09
-1.47542e-09
2.11332e-08
4.13088e-08
-2.61849e-08
1.27497e-08
-3.03582e-08
4.31028e-09
1.32983e-08
-3.6976e-08
-1.44998e-08
1.94956e-08
1.09478e-08
-5.22529e-09
4.97704e-09
3.50145e-08
-3.68281e-08
4.44142e-10
2.8996e-09
-3.01305e-09
-3.30695e-10
3.48684e-08
-3.46102e-08
-4.09716e-09
3.839e-09
4.78643e-10
-1.87922e-08
-9.49282e-09
1.87898e-08
1.28391e-08
-1.31957e-08
1.31063e-08
1.29608e-09
-1.93539e-08
4.13378e-08
-2.98284e-08
-8.10664e-09
3.11998e-08
-6.17745e-09
-8.42484e-10
1.74675e-08
-1.14763e-08
1.44552e-09
2.10667e-08
1.14562e-08
-2.83667e-09
-2.12476e-08
3.75983e-08
-2.63814e-08
-1.36782e-08
1.918e-08
-6.30067e-09
-3.12509e-08
4.59448e-08
-2.74648e-08
-9.28628e-09
4.83773e-08
-1.16262e-08
3.644e-10
1.0232e-08
4.599e-09
2.96491e-08
3.60872e-09
-3.48103e-08
-9.66755e-09
5.36669e-09
-1.52912e-08
1.64228e-08
-1.38474e-08
2.67203e-08
4.56678e-09
1.57208e-08
3.03625e-08
-2.32295e-09
9.64584e-09
-2.0327e-08
-3.83742e-10
1.18189e-08
-1.06546e-08
9.07339e-09
-1.02377e-08
1.06215e-08
-5.82425e-10
-4.40821e-08
1.66482e-08
5.6311e-08
2.43343e-08
-8.11116e-09
-1.16618e-08
1.36192e-08
-4.05854e-08
-1.16021e-08
1.60473e-08
4.9099e-09
-3.06248e-08
1.48355e-08
2.3545e-08
-8.7854e-09
3.99049e-08
-1.38625e-08
-1.15224e-08
-3.26188e-10
-3.45106e-08
3.90234e-08
-3.30352e-08
1.19497e-08
-4.1622e-08
4.26034e-08
3.51333e-09
1.63772e-08
-1.69479e-08
-2.94259e-09
-2.02416e-09
1.30734e-08
-1.33037e-08
-2.33857e-08
1.19039e-08
-2.49306e-08
-9.35473e-09
-2.42853e-09
-2.59918e-08
-4.15866e-08
2.50336e-09
8.15876e-09
-1.26464e-08
2.47594e-08
-4.86649e-09
2.87417e-09
3.49208e-08
-1.26761e-08
3.24336e-08
-4.32354e-10
-1.75354e-08
1.78e-08
-3.17543e-11
-2.32784e-10
-5.71634e-09
2.0163e-09
-4.065e-08
4.435e-08
-2.59488e-08
5.85722e-08
2.04519e-08
-9.65415e-09
-1.48532e-08
8.41036e-09
-1.51818e-08
1.69341e-08
3.10518e-08
-3.18137e-08
-4.46389e-08
3.65238e-09
-1.28096e-08
3.86654e-09
-2.22052e-08
-1.06134e-09
8.66786e-09
1.23154e-08
-1.60853e-09
3.72228e-08
-4.13306e-08
-2.283e-08
-9.50272e-11
2.19242e-08
1.13152e-08
6.58459e-09
-1.65242e-08
-2.666e-08
2.52402e-08
1.7944e-08
-3.60608e-09
5.79041e-09
5.31361e-09
-2.17738e-08
-5.745e-09
3.46165e-08
-8.85569e-09