/*--------------------------------*- C++ -*----------------------------------*\
  =========                 |
  \\      /  F ield         | OpenFOAM: The Open Source CFD Toolbox
   \\    /   O peration     | Website:  https://openfoam.org
    \\  /    A nd           | Version:  7
     \\/     M anipulation  |
\*---------------------------------------------------------------------------*/
FoamFile
{
    version     2.0;
    format      ascii;
    class       volVectorField;
    location    "1.015";
    object      U;
}
// * * * * * * * * * * * * * * * * * * * * * * * * * * * * * * * * * * * * * //

dimensions      [0 1 -1 0 0 0 0];

internalField   nonuniform List<vector> 
111696
(
(-0.0294478 0.0201246 0.0469455)
(-0.0261046 0.0160721 0.0423524)
(-0.0298837 0.0223242 0.0476915)
(-0.0266123 0.0162018 0.0409155)
(-0.0102211 0.00709912 0.0133659)
(-0.0294335 0.0216673 0.0480241)
(-0.0286591 0.0184551 0.0450271)
(-0.0303344 0.0200211 0.0467373)
(-0.0279913 0.0168396 0.0434861)
(-0.0295822 0.0199044 0.046037)
(-0.0284631 0.0168627 0.0432601)
(-0.0149385 0.00857279 0.0247189)
(-0.0214327 0.0134044 0.0342904)
(-0.0293407 0.0207769 0.0497605)
(-0.0249199 0.0166797 0.0400862)
(-0.0160422 0.0123115 0.0202348)
(-0.0296997 0.0216214 0.0461144)
(-0.0292948 0.0190511 0.0453857)
(-0.0149206 0.00833633 0.0228049)
(-0.0252532 0.0162671 0.0401567)
(-0.0257931 0.0158943 0.0404865)
(-0.0265431 0.0157928 0.0408008)
(-0.0275798 0.018735 0.0444043)
(-0.0278779 0.0189312 0.045145)
(-0.0315457 0.0235782 0.0523116)
(-0.0256815 0.0169116 0.0425056)
(-0.029508 0.0204839 0.0467327)
(-0.0292733 0.0212942 0.0474437)
(-0.0302399 0.0221188 0.0492245)
(-0.0294053 0.0210331 0.0494341)
(-0.0180008 0.0107526 0.029559)
(-0.0247332 0.0162994 0.0404682)
(-0.0244089 0.0140454 0.0404215)
(-0.0165878 0.0115703 0.0231748)
(-0.0250173 0.0164945 0.0401836)
(-0.0309792 0.0239208 0.0505805)
(-0.0296969 0.021414 0.0456177)
(-0.0164653 0.01199 0.0297819)
(-0.02446 0.016467 0.0407016)
(-0.0327863 0.0234644 0.0507867)
(-0.0291519 0.0216914 0.0465461)
(-0.0299358 0.0190616 0.046575)
(-0.0298719 0.0187111 0.0466966)
(-0.0251808 0.016042 0.0407103)
(-0.0298216 0.0187175 0.0456778)
(-0.0233258 0.0166441 0.0318318)
(-0.0288211 0.0168884 0.049847)
(-0.029651 0.0179558 0.0453107)
(-0.0231749 0.0150695 0.0338975)
(-0.0251572 0.0159782 0.0407712)
(-0.00745592 0.00537712 0.00970391)
(-0.0270273 0.0167414 0.0463797)
(-0.0237623 0.0168613 0.0393613)
(-0.0306442 0.02173 0.045968)
(-0.0179784 0.0127839 0.0231208)
(-0.0288134 0.0205814 0.0449822)
(-0.0246381 0.0168951 0.0400593)
(-0.0227451 0.0143649 0.0473786)
(-0.027579 0.0160631 0.0468198)
(-0.0295432 0.0167907 0.0469723)
(-0.0329412 0.0237823 0.0508285)
(-0.025532 0.0144797 0.0364959)
(-0.0297783 0.0215396 0.0489065)
(-0.0179588 0.0112833 0.0265421)
(-0.0250136 0.0158273 0.0408913)
(-0.0265219 0.0171717 0.045773)
(-0.0249652 0.0162328 0.0404855)
(-0.0292304 0.0176357 0.0480329)
(-0.0279555 0.0191815 0.0465742)
(-0.0293826 0.0177879 0.047638)
(-0.0278751 0.0176252 0.0423865)
(-0.0283312 0.0159908 0.043856)
(-0.0274541 0.015722 0.0393193)
(-0.0249186 0.0165643 0.0402188)
(-0.02616 0.0177118 0.043861)
(-0.0233065 0.0126378 0.0375109)
(-0.0303055 0.0150523 0.0422034)
(-0.0291706 0.0203943 0.0460259)
(-0.0283039 0.0174568 0.0426701)
(-0.0251289 0.0164747 0.0400485)
(-0.0253167 0.0168384 0.0410197)
(-0.0244523 0.0165545 0.0406578)
(-0.0297985 0.0220609 0.0475283)
(-0.0289663 0.0164647 0.0455694)
(-0.0252173 0.0161609 0.0479419)
(-0.0314332 0.0154465 0.043336)
(-0.0302153 0.0203348 0.0480998)
(-0.0250403 0.016887 0.0410526)
(-0.0328748 0.0234581 0.0506324)
(-0.0328848 0.0218614 0.0503119)
(-0.0255186 0.016409 0.0402399)
(-0.0294781 0.0198467 0.0461347)
(-0.0285235 0.0147832 0.0411818)
(-0.0287648 0.0192117 0.0449728)
(-0.0148904 0.0101393 0.0222759)
(-0.0297083 0.0142287 0.0424677)
(-0.0280295 0.0187653 0.0461877)
(-0.0255293 0.0159035 0.0405237)
(-0.024533 0.0167664 0.0402686)
(-0.0286705 0.0143812 0.0419329)
(-0.0259205 0.0164945 0.0405352)
(-0.0163875 0.0112468 0.025407)
(-0.0255392 0.016729 0.0420452)
(-0.025286 0.0163092 0.0403104)
(-0.0266894 0.0168234 0.0493063)
(-0.0291752 0.0220332 0.0466101)
(-0.0312297 0.0220199 0.0498182)
(-0.0294867 0.02157 0.0471979)
(-0.0255286 0.0146265 0.0368478)
(-0.0297423 0.016758 0.0466364)
(-0.0136671 0.0074431 0.0237252)
(-0.0250152 0.0157669 0.0359037)
(-0.0258728 0.0163118 0.0404639)
(-0.0254571 0.0163016 0.0416241)
(-0.0237861 0.0141511 0.0468355)
(-0.033361 0.0227315 0.0506251)
(-0.0313553 0.0203498 0.046933)
(-0.0287255 0.0141482 0.0422177)
(-0.0286467 0.0171599 0.0494794)
(-0.0263182 0.0172386 0.0490499)
(-0.0103033 0.0062234 0.0167258)
(-0.0275326 0.0182481 0.0426074)
(-0.0309639 0.0197232 0.0480545)
(-0.0269721 0.0163696 0.0411416)
(-0.0181077 0.00972602 0.0270886)
(-0.0307919 0.021326 0.0507335)
(-0.0307528 0.0227389 0.0477571)
(-0.0324782 0.0206975 0.0487955)
(-0.0285313 0.0186096 0.0471563)
(-0.0295091 0.0212593 0.0502711)
(-0.0290191 0.0174993 0.043961)
(-0.0225482 0.0152886 0.04316)
(-0.0276576 0.0162362 0.0430716)
(-0.024458 0.01539 0.0440606)
(-0.02765 0.017205 0.042066)
(-0.0246991 0.0161839 0.0476095)
(-0.0329404 0.0230551 0.0492659)
(-0.0327354 0.0195425 0.0494448)
(-0.0278215 0.0174816 0.0420914)
(-0.0253889 0.0171032 0.0411648)
(-0.0304132 0.0178297 0.0483373)
(-0.0296092 0.0206143 0.0510097)
(-0.0305128 0.0170448 0.0478662)
(-0.0290118 0.0132404 0.0426963)
(-0.0282225 0.0171529 0.0424057)
(-0.0294509 0.0197338 0.0474498)
(-0.0267839 0.0171357 0.0438423)
(-0.0219229 0.0160002 0.0344175)
(-0.0196888 0.0120605 0.0325792)
(-0.0301166 0.0222136 0.0465664)
(-0.0261158 0.0177465 0.043226)
(-0.018313 0.0125092 0.0326165)
(-0.0273233 0.0147327 0.0455103)
(-0.0330353 0.023778 0.0518916)
(-0.0283888 0.016335 0.0441563)
(-0.0283467 0.0207006 0.043849)
(-0.0254005 0.0162715 0.0402902)
(-0.0321747 0.0203546 0.04947)
(-0.0280645 0.0175909 0.0436997)
(-0.0257577 0.016149 0.0439197)
(-0.0242086 0.0149848 0.0341446)
(-0.0295378 0.0169769 0.0438003)
(-0.0125606 0.0112633 0.0188578)
(-0.0317884 0.0206378 0.0492103)
(-0.0297365 0.0211052 0.0511759)
(-0.00709123 0.00689211 0.0121782)
(-0.0249116 0.0168962 0.040053)
(-0.0287627 0.015186 0.0466046)
(-0.0273911 0.0152498 0.0412522)
(-0.0224718 0.013312 0.0331716)
(-0.0301927 0.0170215 0.0476212)
(-0.0289728 0.013943 0.0464228)
(-0.0301648 0.022918 0.047352)
(-0.0333892 0.0238311 0.050963)
(-0.030814 0.0191854 0.0494205)
(-0.0297155 0.0151481 0.0460374)
(-0.0287872 0.019078 0.0499116)
(-0.0299911 0.0226924 0.0457357)
(-0.0090243 0.00804765 0.0167541)
(-0.0285243 0.0197212 0.0442781)
(-0.0284112 0.0139579 0.0446236)
(-0.0200011 0.0106706 0.0282213)
(-0.0264867 0.0148998 0.0476651)
(-0.024897 0.0169566 0.0400143)
(-0.03252 0.0223562 0.05032)
(-0.0315162 0.0229411 0.0504878)
(-0.0243455 0.0158951 0.0478968)
(-0.0319029 0.0231382 0.0501564)
(-0.0247988 0.016645 0.0401641)
(-0.00997509 0.00957149 0.0183646)
(-0.029549 0.0222115 0.0470756)
(-0.0191229 0.0138119 0.030603)
(-0.0152942 0.0110464 0.0285704)
(-0.0284799 0.0168805 0.0425202)
(-0.0304885 0.022674 0.0456761)
(-0.0284759 0.018693 0.0447317)
(-0.0320284 0.0223056 0.0508107)
(-0.0254931 0.0159574 0.0478192)
(-0.0289889 0.0174358 0.0501227)
(-0.0256066 0.0135513 0.042823)
(-0.0248569 0.0169177 0.0399916)
(-0.0309891 0.0191878 0.0507987)
(-0.0195692 0.0116599 0.0317064)
(-0.0142702 0.009068 0.0235776)
(-0.0323566 0.0235838 0.0517587)
(-0.0284586 0.0196536 0.0452419)
(-0.0303717 0.0189679 0.0486162)
(-0.0109649 0.00949533 0.0228695)
(-0.0287101 0.0164318 0.0489163)
(-0.0198864 0.0118812 0.0272163)
(-0.0305078 0.0154516 0.0494274)
(-0.0324401 0.0235478 0.0506058)
(-0.0300945 0.0179308 0.0483101)
(-0.0188436 0.0123568 0.0394452)
(-0.0171034 0.013762 0.0281594)
(-0.0246589 0.0154363 0.0493569)
(-0.0221352 0.0137167 0.0384893)
(-0.0253293 0.0163148 0.0402718)
(-0.0274821 0.015447 0.0414687)
(-0.0164719 0.0108871 0.0261387)
(-0.0296232 0.0220557 0.0480361)
(-0.0288015 0.0203135 0.049262)
(-0.0267722 0.0157137 0.0425906)
(-0.0254546 0.0174993 0.0429025)
(-0.0304761 0.0187373 0.0457704)
(-0.0266559 0.0172257 0.0430762)
(-0.027394 0.0193462 0.0430761)
(-0.0304533 0.0209964 0.0483305)
(-0.0247935 0.0171233 0.04005)
(-0.0330246 0.021405 0.0486268)
(-0.0299314 0.021006 0.0471816)
(-0.0279848 0.0206874 0.0441097)
(-0.0256164 0.0166425 0.0402995)
(-0.0289654 0.0209353 0.0448747)
(-0.0260441 0.0170444 0.042547)
(-0.0251651 0.0169146 0.0402049)
(-0.0113573 0.00932898 0.0207794)
(-0.0312318 0.0227697 0.0503916)
(-0.0247196 0.0170683 0.0400328)
(-0.0316911 0.0236256 0.0512907)
(-0.0261246 0.0176903 0.0420683)
(-0.026788 0.0160723 0.0431206)
(-0.0292149 0.0214412 0.0461655)
(-0.0248303 0.0170727 0.0400705)
(-0.0315091 0.0216426 0.0506217)
(-0.0321128 0.0209686 0.0482746)
(-0.0265009 0.015745 0.0408876)
(-0.0269404 0.0194936 0.0401552)
(-0.0263616 0.015946 0.0468043)
(-0.028022 0.0149417 0.0505563)
(-0.0260241 0.0174982 0.0424084)
(-0.028837 0.0133246 0.0473421)
(-0.0243059 0.0155047 0.0418422)
(-0.029576 0.0185418 0.0462709)
(-0.0271418 0.0160096 0.0434778)
(-0.0297213 0.0175244 0.048701)
(-0.0275326 0.0184792 0.0424862)
(-0.0265293 0.0177327 0.0419162)
(-0.033441 0.0239372 0.0509914)
(-0.0212128 0.0149989 0.0372785)
(-0.0276399 0.0150499 0.0413227)
(-0.0257239 0.0175709 0.0428879)
(-0.0295315 0.0231444 0.0451357)
(-0.0260414 0.0173062 0.0492404)
(-0.0268227 0.0160471 0.0409659)
(-0.0275646 0.0169375 0.044469)
(-0.0294052 0.0226099 0.0448788)
(-0.029587 0.0229591 0.0450934)
(-0.0300061 0.0223503 0.0453974)
(-0.0250281 0.0166564 0.0413567)
(-0.0256173 0.0173902 0.0424248)
(-0.0291681 0.0151033 0.0456432)
(-0.0279272 0.0184554 0.043215)
(-0.0307093 0.0226187 0.0508852)
(-0.0289548 0.0192316 0.0480538)
(-0.0254663 0.016554 0.0416156)
(-0.0169761 0.0123736 0.0268142)
(-0.0190322 0.0125101 0.0287099)
(-0.0327953 0.0233705 0.0513695)
(-0.0258069 0.0167597 0.0405106)
(-0.0247289 0.0168367 0.0400131)
(-0.0311913 0.0202867 0.0486176)
(-0.0141485 0.0108297 0.0199032)
(-0.0286555 0.0204101 0.0483681)
(-0.0275177 0.0162402 0.0403663)
(-0.0245614 0.0180053 0.0408225)
(-0.0287864 0.0171097 0.0428535)
(-0.0295508 0.0233538 0.0449719)
(-0.0284744 0.0175288 0.0444947)
(-0.0308765 0.0217702 0.0495894)
(-0.0296707 0.0223209 0.0454632)
(-0.0217424 0.0146789 0.0365004)
(-0.020777 0.0152134 0.0287945)
(-0.0289039 0.0157247 0.0440611)
(-0.0329503 0.0219961 0.0508641)
(-0.0136457 0.00994124 0.0206691)
(-0.0189426 0.0130296 0.0253071)
(-0.0163332 0.0121685 0.0244463)
(-0.0253922 0.0173011 0.0408918)
(-0.0155808 0.0121358 0.0226786)
(-0.0264811 0.0180781 0.0423695)
(-0.0188747 0.013896 0.0255803)
(-0.0187674 0.012023 0.0281491)
(-0.0250438 0.0167247 0.0419044)
(-0.0195479 0.0120344 0.0284829)
(-0.0321976 0.0195838 0.0491823)
(-0.0287397 0.0166494 0.044654)
(-0.0278801 0.0168102 0.0493808)
(-0.0343228 0.0141123 0.0462847)
(-0.0302851 0.0200501 0.0482296)
(-0.0267439 0.0157865 0.0429762)
(-0.0281771 0.0206536 0.0435918)
(-0.0267287 0.0163982 0.0475627)
(-0.0329332 0.0195908 0.0489555)
(-0.0177928 0.0103831 0.0258617)
(-0.0247692 0.0154377 0.0418582)
(-0.0282101 0.0197282 0.0493259)
(-0.0185334 0.0134019 0.0294982)
(-0.0295385 0.0165609 0.0440287)
(-0.032516 0.0228245 0.0513877)
(-0.0262081 0.0162774 0.04763)
(-0.0175723 0.0127711 0.0282213)
(-0.0302833 0.0189613 0.0495702)
(-0.0323097 0.0157211 0.0469622)
(-0.0265703 0.0156613 0.0411648)
(-0.00807736 0.00577682 0.0148628)
(-0.0280977 0.0193654 0.0451431)
(-0.0106877 0.0085503 0.0149746)
(-0.0308003 0.0192204 0.0457535)
(-0.0297331 0.0193002 0.0450516)
(-0.0301996 0.0187078 0.0466402)
(-0.0286313 0.0139934 0.0457255)
(-0.0267055 0.0181192 0.0422096)
(-0.0263163 0.0146163 0.0478522)
(-0.0304654 0.0152545 0.0462787)
(-0.0254172 0.0173439 0.0413468)
(-0.0243824 0.0166029 0.0405148)
(-0.0290458 0.017097 0.0450547)
(-0.0243621 0.0164156 0.0412579)
(-0.0319644 0.0193782 0.0469918)
(-0.0309076 0.0200796 0.0441479)
(-0.029805 0.018646 0.0483532)
(-0.0171769 0.0114883 0.0267841)
(-0.0225662 0.0156825 0.0399886)
(-0.0262443 0.0174855 0.0496993)
(-0.0284849 0.0198774 0.050312)
(-0.0253813 0.0168623 0.0433074)
(-0.033008 0.0226697 0.0489912)
(-0.0143434 0.00818037 0.0184525)
(-0.0182552 0.0134149 0.0276202)
(-0.0277764 0.0188966 0.0426644)
(-0.03002 0.0162663 0.0481789)
(-0.0316858 0.0198307 0.0480846)
(-0.0254577 0.0166109 0.0415815)
(-0.026319 0.0150231 0.0460469)
(-0.0314191 0.019457 0.0463129)
(-0.0255346 0.0146873 0.0433055)
(-0.0243573 0.0138681 0.0445973)
(-0.0264565 0.0147383 0.0419214)
(-0.0287318 0.0171569 0.0500242)
(-0.0318837 0.0206187 0.047978)
(-0.0333174 0.0217071 0.0488169)
(-0.0280531 0.0187595 0.0432193)
(-0.0237329 0.0156875 0.042074)
(-0.025284 0.0167775 0.0405614)
(-0.0174644 0.0120102 0.0265541)
(-0.0267667 0.0152204 0.0476088)
(-0.032217 0.0237519 0.0504257)
(-0.029081 0.0204705 0.05114)
(-0.0295201 0.0194043 0.0507276)
(-0.0328714 0.0239505 0.0512158)
(-0.0127957 0.00868879 0.0194387)
(-0.0310121 0.0218875 0.0465112)
(-0.0151418 0.0116003 0.0227869)
(-0.0234599 0.015779 0.0432206)
(-0.0301616 0.0214877 0.0454978)
(-0.0257103 0.0162969 0.0427585)
(-0.0296925 0.0219362 0.045282)
(-0.0247906 0.0154569 0.0407855)
(-0.0272933 0.0180775 0.0425457)
(-0.0301158 0.0172669 0.0499199)
(-0.0108938 0.00473475 0.0166028)
(-0.0271505 0.0170987 0.050004)
(-0.0317492 0.0177973 0.0495453)
(-0.0272294 0.0194534 0.0426559)
(-0.0261654 0.0179458 0.0442468)
(-0.0275168 0.0162193 0.0471921)
(-0.00793996 0.00668634 0.0148409)
(-0.013885 0.011294 0.0232818)
(-0.0114089 0.0085827 0.0192159)
(-0.0276968 0.0204905 0.0438754)
(-0.0326733 0.0229613 0.0479991)
(-0.0288818 0.0221069 0.0477633)
(-0.0285586 0.0186727 0.0494128)
(-0.0254286 0.0166548 0.0402486)
(-0.0330612 0.0231853 0.0486897)
(-0.0274133 0.0155915 0.0411383)
(-0.0115642 0.00893394 0.0175866)
(-0.0249138 0.0172473 0.0402775)
(-0.0314437 0.0167501 0.0448096)
(-0.0168022 0.00982658 0.0184512)
(-0.0250028 0.0152457 0.0421271)
(-0.0199686 0.0136985 0.0295918)
(-0.024419 0.0127645 0.0469262)
(-0.00566597 0.00484206 0.0111335)
(-0.0313566 0.0209071 0.0472704)
(-0.0329902 0.0219385 0.0479297)
(-0.0317886 0.015176 0.0445328)
(-0.0245638 0.014355 0.0405597)
(-0.0287714 0.014698 0.0433872)
(-0.0287506 0.016389 0.0432592)
(-0.0265947 0.017863 0.0463845)
(-0.0251205 0.0172085 0.0404349)
(-0.0256301 0.0172874 0.0433622)
(-0.0297103 0.0204211 0.0457866)
(-0.0286435 0.0193061 0.0474928)
(-0.0315503 0.0200475 0.0474199)
(-0.015963 0.012111 0.0278142)
(-0.0121746 0.00715735 0.0184363)
(-0.0327016 0.0188834 0.0490322)
(-0.0136663 0.0105936 0.0232667)
(-0.0326745 0.0229115 0.05102)
(-0.0281301 0.0155941 0.0482209)
(-0.0310973 0.0228489 0.0461502)
(-0.0191171 0.0128748 0.028563)
(-0.0246293 0.0150553 0.048332)
(-0.0146248 0.0102398 0.0234228)
(-0.0124109 0.00878611 0.0209178)
(-0.0297612 0.02186 0.0501608)
(-0.0222711 0.0139064 0.0332262)
(-0.0273523 0.0153265 0.0412688)
(-0.0286674 0.0180251 0.0460584)
(-0.0256618 0.0164793 0.0414639)
(-0.0296174 0.0200489 0.0453409)
(-0.0288011 0.0183775 0.0456276)
(-0.0301526 0.0167264 0.048779)
(-0.0305967 0.0209495 0.0470163)
(-0.030957 0.0201916 0.0464166)
(-0.00799979 0.00539229 0.0120234)
(-0.0295343 0.0187467 0.0418732)
(-0.0297325 0.0177351 0.046741)
(-0.0242786 0.0165808 0.0409654)
(-0.0294821 0.0150354 0.0446898)
(-0.0260114 0.0153633 0.0446601)
(-0.0255453 0.0167821 0.0403679)
(-0.0175724 0.012281 0.0300736)
(-0.0318764 0.0228455 0.0471457)
(-0.027013 0.0195363 0.0427463)
(-0.0282743 0.0161047 0.0493645)
(-0.016561 0.0107787 0.0284253)
(-0.0144287 0.00940923 0.0213683)
(-0.0253337 0.0153417 0.0436539)
(-0.0312861 0.0203043 0.0499673)
(-0.0145247 0.0106246 0.0245866)
(-0.0287777 0.020283 0.0495814)
(-0.0272384 0.0175799 0.0419438)
(-0.0205479 0.0119773 0.0322734)
(-0.0252696 0.0170485 0.0402313)
(-0.0321999 0.0199093 0.0491775)
(-0.00887466 0.00707848 0.013484)
(-0.0316654 0.0227132 0.0468085)
(-0.0316077 0.0232157 0.0462714)
(-0.0282731 0.0173104 0.0432907)
(-0.0273962 0.0195969 0.0429716)
(-0.0311087 0.019153 0.0474179)
(-0.023329 0.0131596 0.0392876)
(-0.0250276 0.0169926 0.0401326)
(-0.0251229 0.0162809 0.0367602)
(-0.01804 0.0113615 0.0250978)
(-0.0274254 0.0166875 0.0427289)
(-0.0318512 0.020709 0.045267)
(-0.027068 0.0185967 0.0496979)
(-0.0250533 0.0152226 0.0434651)
(-0.0261977 0.0170023 0.0447661)
(-0.0247457 0.0166618 0.0405732)
(-0.0302691 0.0204193 0.0466066)
(-0.0302245 0.0150223 0.0433313)
(-0.0188348 0.0119454 0.0286515)
(-0.0270559 0.0180298 0.0473349)
(-0.0327712 0.0240224 0.0511594)
(-0.0298602 0.0226697 0.0449845)
(-0.0310559 0.0219646 0.0510988)
(-0.0315813 0.0179888 0.0498275)
(-0.0303201 0.0177416 0.0490082)
(-0.0317118 0.0227304 0.050579)
(-0.029382 0.0159244 0.0450439)
(-0.0304533 0.0175462 0.0503634)
(-0.0280844 0.0204015 0.043501)
(-0.0145713 0.00892703 0.0233706)
(-0.0249487 0.0173952 0.0403544)
(-0.0157953 0.0106943 0.0246094)
(-0.0259248 0.0168318 0.0419778)
(-0.0263713 0.0148399 0.0418863)
(-0.0281818 0.0151106 0.0467155)
(-0.031427 0.0165543 0.047862)
(-0.0247982 0.0166243 0.0402579)
(-0.0284537 0.0138269 0.044049)
(-0.0170645 0.00997475 0.0242523)
(-0.0291841 0.0217625 0.0450195)
(-0.0262432 0.0171505 0.0444478)
(-0.0265205 0.0150209 0.0476912)
(-0.0280091 0.0156864 0.0489974)
(-0.0230377 0.0134741 0.041496)
(-0.0263215 0.016645 0.0477436)
(-0.0167303 0.0105433 0.0279374)
(-0.0266315 0.0161664 0.0405334)
(-0.0250619 0.0164683 0.0422118)
(-0.0268492 0.0178646 0.0463892)
(-0.0308738 0.0221226 0.0469148)
(-0.0259528 0.0176026 0.0407547)
(-0.0271637 0.0185193 0.0471618)
(-0.0298025 0.0185185 0.0484498)
(-0.0276945 0.0194067 0.0431254)
(-0.023986 0.0157528 0.0446816)
(-0.0112695 0.00817551 0.0212424)
(-0.0264123 0.0151273 0.0410749)
(-0.0252527 0.0158901 0.0406604)
(-0.0314624 0.0223531 0.0476863)
(-0.0312519 0.0225601 0.0464203)
(-0.0249633 0.0171925 0.0401797)
(-0.0185551 0.011698 0.0297008)
(-0.0312578 0.0149574 0.0437643)
(-0.0124043 0.00577682 0.017746)
(-0.0283691 0.0187753 0.0432967)
(-0.0246029 0.0169228 0.0401169)
(-0.0160539 0.00911946 0.0218633)
(-0.0326313 0.0230556 0.0496078)
(-0.0179769 0.0110223 0.0257652)
(-0.0271636 0.0177356 0.0443124)
(-0.0254148 0.0172081 0.0407923)
(-0.0306039 0.0160228 0.0434787)
(-0.029233 0.0178518 0.0465319)
(-0.0304218 0.0212398 0.0453175)
(-0.025277 0.0173825 0.0411213)
(-0.0282342 0.0157471 0.0433273)
(-0.020686 0.0123313 0.0360746)
(-0.0260168 0.0163111 0.0403471)
(-0.0273521 0.0188598 0.0437742)
(-0.0303738 0.0229589 0.0455424)
(-0.0183594 0.0112192 0.0263967)
(-0.0305581 0.0230693 0.047398)
(-0.0317453 0.0149195 0.0438676)
(-0.020856 0.0151198 0.033123)
(-0.00976412 0.00469637 0.0149461)
(-0.0251429 0.0168992 0.0403437)
(-0.0303601 0.0171073 0.0443003)
(-0.00955822 0.00598269 0.0127718)
(-0.032694 0.0240966 0.0513879)
(-0.0289971 0.0208457 0.0486972)
(-0.0271123 0.0175747 0.0445318)
(-0.0278417 0.0148248 0.0441551)
(-0.0207049 0.0117204 0.029869)
(-0.0301015 0.0211576 0.0453286)
(-0.0248824 0.0193113 0.0402171)
(-0.0308478 0.0163152 0.0483539)
(-0.0298519 0.0215402 0.047289)
(-0.0250226 0.0154389 0.040988)
(-0.018265 0.0132304 0.0279584)
(-0.0273644 0.0185726 0.046181)
(-0.0286769 0.0178202 0.0456227)
(-0.0259272 0.0148211 0.0436038)
(-0.0292626 0.0181355 0.0467364)
(-0.0288537 0.0203148 0.0475071)
(-0.0230487 0.0155237 0.0415049)
(-0.0245586 0.0159901 0.0419717)
(-0.020811 0.0171213 0.0343124)
(-0.0267062 0.0177043 0.0445778)
(-0.0298028 0.0173359 0.04655)
(-0.0292465 0.0222889 0.0447379)
(-0.0293528 0.0156483 0.047127)
(-0.0248001 0.0161041 0.0406438)
(-0.0254503 0.0161176 0.0401383)
(-0.0251551 0.0167005 0.040122)
(-0.0144059 0.00969157 0.0243224)
(-0.0251862 0.0172415 0.040382)
(-0.0275351 0.0161331 0.0456779)
(-0.0258982 0.0155996 0.0430515)
(-0.0305042 0.0221892 0.0480421)
(-0.026055 0.0165067 0.0492451)
(-0.0273482 0.0173348 0.0417213)
(-0.0285064 0.0189694 0.0415609)
(-0.024817 0.016655 0.040483)
(-0.0270134 0.0168614 0.0415552)
(-0.0307597 0.0202789 0.0479182)
(-0.0281325 0.0196165 0.0437878)
(-0.0318025 0.0240111 0.0507147)
(-0.0261254 0.0178295 0.0461317)
(-0.0304731 0.0158158 0.0469658)
(-0.0184287 0.0114961 0.0284671)
(-0.0308602 0.0181716 0.0507931)
(-0.0198212 0.0126616 0.0309414)
(-0.0327886 0.0219383 0.0484626)
(-0.0163891 0.0105254 0.0235583)
(-0.0263128 0.014317 0.0423241)
(-0.0294416 0.0165714 0.0481465)
(-0.018287 0.0120584 0.0330651)
(-0.0332258 0.0239415 0.0519858)
(-0.0286835 0.0175634 0.0443059)
(-0.0136709 0.00748845 0.0203891)
(-0.030958 0.0229022 0.0514526)
(-0.0147957 0.00891256 0.0208464)
(-0.0290069 0.0193502 0.045751)
(-0.0271199 0.0168276 0.04166)
(-0.0265398 0.0175481 0.0462137)
(-0.0286172 0.0181393 0.0445076)
(-0.0322095 0.0219037 0.0492659)
(-0.0327213 0.0240602 0.0503593)
(-0.0293617 0.0178997 0.0465977)
(-0.0302615 0.0181885 0.0500306)
(-0.0296427 0.013982 0.0432816)
(-0.0298407 0.0149107 0.0492004)
(-0.0321325 0.0214453 0.0491571)
(-0.0163873 0.00983755 0.0256782)
(-0.0310951 0.0209907 0.0480936)
(-0.0274962 0.0188982 0.0442639)
(-0.0267995 0.0176312 0.0433606)
(-0.0249991 0.0173425 0.0401979)
(-0.0176186 0.0132728 0.0269255)
(-0.0296073 0.0221343 0.046073)
(-0.0132253 0.00870302 0.0188289)
(-0.0248406 0.0169453 0.0400684)
(-0.0329618 0.0204217 0.0499065)
(-0.0273222 0.0171627 0.0463096)
(-0.0252019 0.0154178 0.0455378)
(-0.0262018 0.0152951 0.0405209)
(-0.0289605 0.0221699 0.044575)
(-0.0193897 0.0127002 0.0300058)
(-0.0318784 0.0191361 0.0478482)
(-0.0284862 0.0177475 0.0429523)
(-0.0259153 0.0175818 0.0409555)
(-0.0276016 0.0180577 0.0423862)
(-0.012152 0.0105152 0.0167739)
(-0.0258671 0.0159263 0.0427088)
(-0.0106207 0.00778205 0.016287)
(-0.0302687 0.0219121 0.0466323)
(-0.0273702 0.0163809 0.0413763)
(-0.0264769 0.0171194 0.0460075)
(-0.0256161 0.0161972 0.0417409)
(-0.0256093 0.0173139 0.0408655)
(-0.0307824 0.0210586 0.0480778)
(-0.0285898 0.0207786 0.0474487)
(-0.0271136 0.0171265 0.0416728)
(-0.0161268 0.0117291 0.0249215)
(-0.0231186 0.012338 0.0365667)
(-0.0293398 0.0202318 0.0507834)
(-0.0278448 0.019115 0.0494323)
(-0.0257723 0.0172206 0.0415533)
(-0.03154 0.0192172 0.0462156)
(-0.0270273 0.0160346 0.0487054)
(-0.0300233 0.0222179 0.0487453)
(-0.028368 0.0182778 0.0432852)
(-0.0246505 0.0160507 0.0413961)
(-0.0323974 0.0238449 0.0502664)
(-0.0254133 0.0165836 0.0405289)
(-0.0280665 0.0194693 0.0497247)
(-0.0318407 0.0223508 0.0512769)
(-0.00976755 0.00885241 0.0150926)
(-0.0259634 0.0163889 0.0404668)
(-0.0152255 0.00963998 0.0209976)
(-0.0307517 0.0229248 0.050524)
(-0.024788 0.0165444 0.0402041)
(-0.0185664 0.0106427 0.0307929)
(-0.0287169 0.0194856 0.0488793)
(-0.0304288 0.0182416 0.0490717)
(-0.0248258 0.0169316 0.0401108)
(-0.0302779 0.0228756 0.0458601)
(-0.0302666 0.0226336 0.0467794)
(-0.030985 0.0169434 0.0493473)
(-0.0138102 0.00871621 0.0241499)
(-0.0187022 0.0121239 0.0341843)
(-0.0101311 0.00807025 0.0189402)
(-0.0159352 0.012506 0.0221943)
(-0.0199015 0.0143494 0.0317657)
(-0.030426 0.0184186 0.0513198)
(-0.019726 0.0113779 0.0356465)
(-0.0269306 0.0180998 0.0461685)
(-0.0307318 0.0189257 0.0455459)
(-0.0262209 0.0182603 0.0438886)
(-0.0247603 0.0167323 0.0402632)
(-0.0255381 0.0164453 0.0408026)
(-0.0286302 0.0200496 0.0457029)
(-0.0318361 0.019027 0.0465605)
(-0.0334738 0.0226613 0.0505354)
(-0.0326265 0.0204257 0.0493743)
(-0.0275946 0.014151 0.0448823)
(-0.0255197 0.0149385 0.044036)
(-0.0247126 0.0168003 0.0400742)
(-0.0289314 0.0197874 0.0492182)
(-0.0255373 0.0164809 0.0485666)
(-0.0311929 0.0216232 0.0486809)
(-0.0258795 0.0181188 0.0461343)
(-0.0274604 0.0176775 0.0423271)
(-0.0103776 0.0047629 0.0158221)
(-0.0251394 0.0167401 0.0404182)
(-0.0211215 0.0149436 0.0333843)
(-0.00986246 0.00766104 0.0164355)
(-0.0288766 0.0137587 0.0438879)
(-0.0248845 0.0160138 0.0417129)
(-0.0298669 0.0213356 0.0468469)
(-0.0214812 0.0129401 0.0357139)
(-0.025412 0.0155849 0.046949)
(-0.0245974 0.0131021 0.0451473)
(-0.0290116 0.0212873 0.047228)
(-0.0260891 0.0149642 0.0448739)
(-0.0296358 0.0184143 0.0504017)
(-0.0287662 0.0191829 0.0507761)
(-0.0294597 0.0182867 0.0485647)
(-0.0118157 0.00955649 0.0220965)
(-0.0288978 0.0178778 0.0431206)
(-0.0251249 0.0176063 0.0404215)
(-0.00502165 0.00424316 0.01151)
(-0.0262529 0.0178331 0.0429909)
(-0.0251914 0.0163404 0.0495161)
(-0.0250818 0.0169552 0.0400425)
(-0.033089 0.0214423 0.0489769)
(-0.0279276 0.0181276 0.0490586)
(-0.0101514 0.00828254 0.0183452)
(-0.0190325 0.0153323 0.0265186)
(-0.0151078 0.0111821 0.0233578)
(-0.0266789 0.0183743 0.0420294)
(-0.0204284 0.0110973 0.0318372)
(-0.0281279 0.0182731 0.0495234)
(-0.0297498 0.0217652 0.0503244)
(-0.0285837 0.0177769 0.0459687)
(-0.0248584 0.0164627 0.0411275)
(-0.0218074 0.0120479 0.0335191)
(-0.00822951 0.00684132 0.0149415)
(-0.0277567 0.0190941 0.0426949)
(-0.0137626 0.0100164 0.0173907)
(-0.00506198 0.00304652 0.00437448)
(-0.0249906 0.0158283 0.0425642)
(-0.0324694 0.0190214 0.0473113)
(-0.0260945 0.0170627 0.0484423)
(-0.00983649 0.00559116 0.0136819)
(-0.0268005 0.0139944 0.0415389)
(-0.0137087 0.00738514 0.0196911)
(-0.027618 0.0201307 0.0441858)
(-0.0303493 0.0160244 0.0485307)
(-0.0247879 0.0163526 0.0408979)
(-0.0331158 0.0192795 0.0477589)
(-0.0295296 0.0195921 0.0506971)
(-0.0309606 0.0217794 0.0460728)
(-0.025267 0.017612 0.0405505)
(-0.0269124 0.0174239 0.0417582)
(-0.0252191 0.0175765 0.0358643)
(-0.0266948 0.0132824 0.0441607)
(-0.0244906 0.0161594 0.0411347)
(-0.0310991 0.0166328 0.0479567)
(-0.0264475 0.0185186 0.0430371)
(-0.0284662 0.0209847 0.0441635)
(-0.0323374 0.0212494 0.0477844)
(-0.0166485 0.0112199 0.0276111)
(-0.0295634 0.021386 0.0491899)
(-0.0274513 0.014409 0.0433684)
(-0.0252963 0.0170889 0.0404916)
(-0.0279266 0.0171931 0.0419569)
(-0.0171269 0.00959516 0.0296042)
(-0.0212711 0.0150661 0.0292079)
(-0.0322121 0.0209067 0.0484876)
(-0.0284759 0.0185437 0.0434404)
(-0.0251323 0.0173798 0.0404969)
(-0.0281926 0.0184174 0.0475406)
(-0.0251015 0.0158652 0.0394823)
(-0.0271477 0.0184684 0.0463283)
(-0.0301261 0.0158003 0.0466067)
(-0.0299292 0.0169248 0.0435715)
(-0.0268702 0.0164496 0.0439958)
(-0.0262314 0.0184832 0.0424489)
(-0.0303438 0.0213156 0.0463941)
(-0.0122553 0.00867012 0.0217861)
(-0.0249122 0.0169225 0.0402496)
(-0.0265545 0.0169794 0.04103)
(-0.028307 0.0192698 0.0438548)
(-0.0331547 0.0213935 0.0477141)
(-0.0298848 0.0198886 0.0452038)
(-0.0101017 0.00739348 0.0178323)
(-0.0306399 0.0196444 0.0472044)
(-0.0300474 0.0215735 0.0514375)
(-0.0291824 0.0206949 0.0507055)
(-0.0183132 0.0116949 0.0274)
(-0.0278074 0.0177506 0.0495609)
(-0.0271624 0.0151487 0.0464541)
(-0.0181348 0.012685 0.0307246)
(-0.0250745 0.0172447 0.0403787)
(-0.0201949 0.0132182 0.0334593)
(-0.0302964 0.0223269 0.0479898)
(-0.0294951 0.0215864 0.0499442)
(-0.0279001 0.0185432 0.0453721)
(-0.011939 0.00873199 0.0198011)
(-0.0222889 0.0135506 0.0336983)
(-0.0162745 0.00992422 0.0235217)
(-0.0271761 0.0171503 0.0483374)
(-0.0258898 0.0164372 0.0402661)
(-0.0265 0.0181977 0.04476)
(-0.0308896 0.0225174 0.0464989)
(-0.0274058 0.0189195 0.046572)
(-0.017607 0.0106364 0.0276339)
(-0.0279262 0.0202744 0.0444002)
(-0.0297857 0.0155041 0.0414952)
(-0.016467 0.0101911 0.024435)
(-0.0250195 0.0166821 0.0431606)
(-0.0155289 0.0106576 0.0272346)
(-0.0280548 0.0206137 0.0447371)
(-0.0165882 0.00907748 0.0247419)
(-0.0320076 0.0210225 0.0460072)
(-0.0253259 0.016551 0.0402957)
(-0.0310044 0.019821 0.0495202)
(-0.018734 0.0141414 0.0324419)
(-0.0291965 0.0150743 0.0448713)
(-0.0182041 0.0109825 0.0252054)
(-0.0298447 0.0160762 0.0461885)
(-0.0316298 0.020014 0.0509727)
(-0.0306182 0.0186579 0.0507606)
(-0.0256322 0.0166556 0.0483929)
(-0.0242258 0.014171 0.0467735)
(-0.0107302 0.00705936 0.0129975)
(-0.0284945 0.0199297 0.04903)
(-0.0206078 0.0129658 0.0333283)
(-0.0166344 0.00945501 0.0296354)
(-0.0268054 0.0188539 0.0445412)
(-0.0247667 0.0168959 0.0400938)
(-0.00772275 0.00446511 0.0107004)
(-0.0323686 0.0205483 0.048724)
(-0.0162946 0.00975889 0.0223759)
(-0.0241694 0.0163772 0.0418449)
(-0.0253809 0.0152358 0.043368)
(-0.0267008 0.016073 0.0457029)
(-0.0310838 0.0239099 0.0507874)
(-0.0294008 0.0194566 0.044742)
(-0.0307234 0.0222847 0.0476811)
(-0.0215377 0.0123445 0.0402405)
(-0.0123224 0.00691125 0.0175754)
(-0.0290076 0.018547 0.0491418)
(-0.025011 0.0174048 0.0403082)
(-0.0283749 0.0188438 0.0430309)
(-0.028355 0.0185326 0.0503697)
(-0.0248695 0.0132853 0.0420747)
(-0.0249971 0.0163542 0.0448019)
(-0.0271758 0.0184043 0.0419048)
(-0.0326575 0.0222364 0.0519714)
(-0.0308608 0.0227084 0.0467228)
(-0.0246298 0.0151594 0.0456227)
(-0.0315736 0.0128733 0.0440771)
(-0.0193262 0.0105712 0.0298965)
(-0.0266215 0.0174788 0.0448652)
(-0.0264397 0.0164863 0.044146)
(-0.0187771 0.0128929 0.0309463)
(-0.0170668 0.0122475 0.0282662)
(-0.024966 0.015302 0.0401555)
(-0.0266756 0.0163342 0.0454666)
(-0.0316316 0.0229949 0.0484533)
(-0.029923 0.0218038 0.0498972)
(-0.0322885 0.0215648 0.0517568)
(-0.00976247 0.00682846 0.0120169)
(-0.0308052 0.022985 0.0465559)
(-0.0273148 0.0197142 0.0432434)
(-0.0290718 0.0215107 0.0478214)
(-0.0292946 0.0143912 0.0475217)
(-0.0322878 0.0234408 0.0492348)
(-0.027274 0.016576 0.0444573)
(-0.0309996 0.0231112 0.0490657)
(-0.0252591 0.0159718 0.0404458)
(-0.0316573 0.0182554 0.046873)
(-0.0104372 0.00653525 0.0137524)
(-0.0143342 0.00894578 0.0205771)
(-0.030429 0.017939 0.0483859)
(-0.0306279 0.0226721 0.0517818)
(-0.0316175 0.0186345 0.0460543)
(-0.0259326 0.0167312 0.0430188)
(-0.0313032 0.022825 0.047387)
(-0.0100078 0.00341528 0.0127378)
(-0.0290081 0.0178989 0.0498774)
(-0.025325 0.0170432 0.0411321)
(-0.0305806 0.0128397 0.0437909)
(-0.0207262 0.012663 0.0330613)
(-0.0281992 0.0171474 0.0423879)
(-0.0148865 0.0109281 0.0208836)
(-0.0274615 0.0182348 0.0449113)
(-0.0281534 0.0195078 0.0484054)
(-0.0264679 0.0179988 0.0473957)
(-0.0258202 0.0174357 0.0439163)
(-0.011098 0.00739367 0.0235699)
(-0.0265297 0.0162267 0.0423761)
(-0.0332538 0.0235622 0.0524738)
(-0.0271969 0.0179897 0.0435007)
(-0.0256756 0.0162944 0.0399279)
(-0.032686 0.0185903 0.0479382)
(-0.0287006 0.0179399 0.0456618)
(-0.0259757 0.0172894 0.0457454)
(-0.0146419 0.0109445 0.0265983)
(-0.016417 0.0105675 0.02724)
(-0.0280559 0.020992 0.0443091)
(-0.0270821 0.0183188 0.0424633)
(-0.031232 0.020173 0.0460213)